LAMMPS data file. 
 66 atoms
 2 atom types
 -8.282499  31.782500  xlo xhi
 -10.584499 29.444500  ylo yhi
 -4.597500  35.457500  zlo zhi
 0.0 0.0 0.0 xy xz yz

Atoms #atomic

 1 1 12.99 12.19 14.42
 2 1 13.36 11.31 13.08
 3 1 9.48 12.56 17.81
 4 1 9.38 14.22 18
 5 1 16.04 6.48 15.39
 6 1 15.82 7.88 16.25
 7 1 12.9 9.51 11.54
 8 1 11.52 9.54 12.38
 9 1 10.42 12.05 10.91
 10 1 9.39 11.84 9.61
 11 1 9.42 8.84 17.53
 12 1 9.93 8.46 16.06
 13 1 14.79 11.89 14.55
 14 1 16.14 12.32 15.22
 15 1 14.65 9.3 18.44
 16 1 13.6 8.35 19.25
 17 1 10.55 8.58 19.95
 18 1 11.37 7.91 18.7
 19 1 9.13 13.16 15.21
 20 1 8.87 11.95 14.38
 21 1 15.35 6.14 17.6
 22 1 15.41 4.64 18.23
 23 1 7.3 10.07 14.68
 24 1 8.81 10.07 15.2
 25 1 9 9.65 12.91
 26 1 9.69 9.77 11.49
 27 1 11.43 11.58 18.95
 28 1 10.46 10.45 18.53
 29 1 11.13 12 15.26
 30 1 11.97 11.76 16.76
 31 1 12.62 7.37 15.76
 32 1 11.6 6.4 14.98
 33 1 13.62 6.55 18.56
 34 1 12.36 6.59 17.55
 35 1 12.11 12.57 12.79
 36 1 10.48 12.37 12.73
 37 1 12.22 10.05 15.4
 38 1 12.67 9.14 14.05
 39 1 15.3 10.44 16.44
 40 1 14.19 9.28 16.61
 41 1 12.83 11.49 21.25
 42 1 12.99 10.44 19.92
 43 1 10.61 6.09 12.37
 44 1 10.49 7.73 12.89
 45 2 13.58 12.17 13.56
 46 2 9.09 13.42 17.43
 47 2 15.9 6.87 16.29
 48 2 12.52 9.77 12.41
 49 2 9.85 11.34 10.32
 50 2 9.45 9.21 16.52
 51 2 15.43 11.63 15.32
 52 2 14.24 9.12 19.41
 53 2 10.54 8.45 18.95
 54 2 9.51 12.7 14.43
 55 2 14.96 5.55 18.34
 56 2 8.24 10.27 14.39
 57 2 9.79 9.29 12.32
 58 2 10.79 11.34 18.22
 59 2 11.96 11.73 15.73
 60 2 12.18 6.45 15.83
 61 2 12.72 7.02 18.44
 62 2 11.3 12.53 12.22
 63 2 12.52 9.15 15.06
 64 2 15.1 9.52 16.93
 65 2 12.52 11.29 20.27
 66 2 10.78 6.73 13.14

