LAMMPS (29 Sep 2021 - Update 2)
  using 1 OpenMP thread(s) per MPI task
# bulk water

units           metal
boundary        p p p
newton 		off
atom_style      atomic

neighbor        2.0 bin
neigh_modify    delay 0 every 1 check yes

read_data	nvt_cluster.lmp
Reading data file ...
  triclinic box = (-8.2824990 -10.584499 -4.5975000) to (31.782500 29.444500 35.457500) with tilt (0.0000000 0.0000000 0.0000000)
  1 by 1 by 1 MPI processor grid
  reading atoms ...
  66 atoms
  read_data CPU = 0.012 seconds
mass 		1 2
mass		2 16

variable	sysvol		equal vol
variable	sysmass		equal mass(all)/6.0221367e+23
variable	sysdensity	equal v_sysmass/v_sysvol/1.0e-24

pair_style	nequip
pair_coeff  	* * water-deploy.pth H O


velocity        all create 300.0 2345678 rot no dist gaussian
fix             1 all nvt temp 300.0 300.0 0.05
timestep        0.0005
thermo_style    custom step pe ke etotal v_sysdensity temp press vol
thermo          10
dump            101 all xyz 10 water.xyz
dump_modify     101 element H O
fix             extra all print 1 "$(step), $(ke), $(pe), $(etotal), $(temp), $(press), $(vol)" file logfile screen no

run             50000
Neighbor list info ...
  update every 1 steps, delay 0 steps, check yes
  max neighbors/atom: 2000, page size: 100000
  master list distance cutoff = 6.5
  ghost atom cutoff = 6.5
  binsize = 3.25, bins = 13 13 13
  1 neighbor lists, perpetual/occasional/extra = 1 0 0
  (1) pair nequip, perpetual
      attributes: full, newton off
      pair build: full/bin/atomonly
      stencil: full/bin/3d
      bin: standard
Per MPI rank memory allocation (min/avg/max) = 4.085 | 4.085 | 4.085 Mbytes
Step PotEng KinEng TotEng v_sysdensity Temp Press Volume 
       0   -13167.643    2.5205728   -13165.122  0.011373797          300    41.910394    64238.679 
      10   -13168.078    2.9546061   -13165.124  0.011373797    351.65888    49.127208    64238.679 
      20   -13168.246    3.1082874   -13165.138  0.011373797    369.95012    51.682518    64238.679 
      30   -13168.064    2.9066636   -13165.158  0.011373797    345.95274    48.330053    64238.679 
      40   -13168.704     3.506496   -13165.198  0.011373797    417.34513    58.303663    64238.679 
      50   -13168.438    3.1870153   -13165.251  0.011373797    379.32036    52.991553    64238.679 
      60   -13168.197    2.8705319   -13165.327  0.011373797    341.65233    47.729279    64238.679 
      70   -13168.576    3.1566067    -13165.42  0.011373797    375.70111    52.485938    64238.679 
      80   -13168.495    2.9713733   -13165.524  0.011373797    353.65452    49.406001    64238.679 
      90   -13168.397    2.7861807   -13165.611  0.011373797    331.61279    46.326743    64238.679 
     100   -13168.599    2.8914187   -13165.707  0.011373797    344.13829    48.076571    64238.679 
     110   -13168.413    2.6254191   -13165.788  0.011373797    312.47886    43.653708    64238.679 
     120   -13168.583    2.7232673    -13165.86  0.011373797    324.12481    45.280662    64238.679 
     130   -13168.729    2.8094665   -13165.919  0.011373797    334.38429    46.713925    64238.679 
     140   -13168.402     2.442819    -13165.96  0.011373797     290.7457    40.617556    64238.679 
     150   -13168.778    2.7782025       -13166  0.011373797    330.66323    46.194088    64238.679 
     160   -13169.033      2.99316    -13166.04  0.011373797    356.24759    49.768257    64238.679 
     170   -13168.789    2.7116958   -13166.077  0.011373797    322.74757    45.088259    64238.679 
     180   -13168.863    2.7457913   -13166.117  0.011373797    326.80563    45.655176    64238.679 
     190   -13168.871    2.7099783   -13166.161  0.011373797    322.54314    45.059701    64238.679 
     200    -13168.87    2.6729337   -13166.197  0.011373797    318.13408    44.443749    64238.679 
     210   -13168.775    2.5488289   -13166.227  0.011373797    303.36305    42.380217    64238.679 
     220    -13168.63    2.3694962    -13166.26  0.011373797    282.01878    39.398394    64238.679 
     230   -13168.993    2.6932602     -13166.3  0.011373797    320.55335    44.781724    64238.679 
     240    -13169.12    2.7890053   -13166.331  0.011373797    331.94898    46.373709    64238.679 
     250   -13168.732    2.3752188   -13166.357  0.011373797    282.69988    39.493545    64238.679 
     260   -13168.944    2.5521627   -13166.392  0.011373797    303.75984     42.43565    64238.679 
     270   -13169.124    2.6952127   -13166.429  0.011373797    320.78573    44.814188    64238.679 
     280   -13169.022    2.5543178   -13166.468  0.011373797    304.01635    42.471484    64238.679 
     290   -13169.026    2.5225313   -13166.504  0.011373797     300.2331    41.942958    64238.679 
     300   -13168.903    2.3732914    -13166.53  0.011373797    282.47048    39.461498    64238.679 
     310     -13168.8    2.2448386   -13166.555  0.011373797    267.18196    37.325671    64238.679 
     320   -13169.047    2.4641034   -13166.583  0.011373797    293.27898    40.971459    64238.679 
     330   -13169.052    2.4450096   -13166.607  0.011373797    291.00643     40.65398    64238.679 
     340   -13168.846    2.2234787   -13166.622  0.011373797    264.63969    36.970512    64238.679 
     350   -13169.096    2.4573668   -13166.638  0.011373797    292.47718    40.859447    64238.679 
     360   -13169.139     2.486135   -13166.653  0.011373797    295.90119    41.337785    64238.679 
     370   -13168.826    2.1637056   -13166.662  0.011373797    257.52546    35.976646    64238.679 
     380   -13168.843    2.1707115   -13166.672  0.011373797     258.3593    36.093134    64238.679 
     390   -13168.814    2.1406191   -13166.674  0.011373797    254.77769    35.592778    64238.679 
     400   -13168.659    1.9947511   -13166.664  0.011373797     237.4164    33.167384    64238.679 
     410   -13168.936    2.2900504   -13166.645  0.011373797    272.56309    38.077422    64238.679 
     420   -13169.084    2.4533376   -13166.631  0.011373797    291.99763    40.792452    64238.679 
     430   -13169.079    2.4760633   -13166.603  0.011373797    294.70245    41.170319    64238.679 
     440   -13169.058    2.4864581   -13166.571  0.011373797    295.93964    41.343157    64238.679 
     450   -13168.928    2.3852976   -13166.542  0.011373797    283.89947    39.661129    64238.679 
     460   -13168.933    2.4268652   -13166.506  0.011373797    288.84686    40.352286    64238.679 
     470   -13168.692     2.233758   -13166.459  0.011373797    265.86314     37.14143    64238.679 
     480   -13168.665    2.2529949   -13166.412  0.011373797    268.15273    37.461288    64238.679 
     490   -13169.147    2.7891656   -13166.358  0.011373797    331.96806    46.376374    64238.679 
     500   -13169.193    2.9052203   -13166.288  0.011373797    345.78096    48.306055    64238.679 
     510   -13168.826    2.6033081   -13166.223  0.011373797     309.8472    43.286061    64238.679 
     520   -13168.995    2.8266007   -13166.169  0.011373797    336.42361     46.99882    64238.679 
     530   -13168.725    2.6066906   -13166.118  0.011373797    310.24978    43.342302    64238.679 
     540   -13168.179    2.1119063   -13166.067  0.011373797    251.36027    35.115361    64238.679 
     550   -13168.471    2.4512915   -13166.019  0.011373797    291.75409     40.75843    64238.679 
     560   -13168.438    2.4653637   -13165.973  0.011373797    293.42898    40.992415    64238.679 
     570   -13168.286    2.3690556   -13165.917  0.011373797    281.96633    39.391067    64238.679 
     580   -13168.828    2.9648753   -13165.863  0.011373797    352.88113    49.297958    64238.679 
     590    -13168.78     2.963971   -13165.816  0.011373797     352.7735    49.282922    64238.679 
     600    -13168.47    2.6913612   -13165.778  0.011373797    320.32732    44.750148    64238.679 
     610   -13168.419    2.6684969    -13165.75  0.011373797    317.60601    44.369977    64238.679 
     620    -13168.25    2.5165609   -13165.733  0.011373797     299.5225    41.843687    64238.679 
     630   -13168.549    2.8312181   -13165.718  0.011373797    336.97317    47.075595    64238.679 
     640   -13168.714    3.0073179   -13165.707  0.011373797    357.93267    50.003664    64238.679 
     650   -13168.247    2.5483757   -13165.699  0.011373797    303.30911    42.372682    64238.679 
     660   -13168.434    2.7313059   -13165.702  0.011373797    325.08157    45.414323    64238.679 
     670   -13168.469    2.7608061   -13165.708  0.011373797     328.5927    45.904832    64238.679 
     680   -13168.347    2.6333267   -13165.713  0.011373797    313.42003    43.785191    64238.679 
     690   -13168.542    2.8200329   -13165.722  0.011373797    335.64191    46.889616    64238.679 
     700   -13168.451    2.7147562   -13165.736  0.011373797    323.11182    45.139145    64238.679 
     710    -13168.35     2.597788   -13165.752  0.011373797     309.1902    43.194277    64238.679 
     720   -13168.708    2.9392972   -13165.769  0.011373797    349.83681    48.872661    64238.679 
     730    -13168.61    2.8200972    -13165.79  0.011373797    335.64956    46.890684    64238.679 
     740   -13168.761    2.9382786   -13165.822  0.011373797    349.71557    48.855725    64238.679 
     750   -13168.832    2.9786223   -13165.853  0.011373797    354.51731    49.526534    64238.679 
     760   -13168.632    2.7446046   -13165.887  0.011373797    326.66438    45.635444    64238.679 
     770   -13168.726     2.800257   -13165.925  0.011373797    333.28817    46.560795    64238.679 
     780   -13168.831    2.8702433   -13165.961  0.011373797    341.61798    47.724481    64238.679 
     790   -13168.921    2.9222705   -13165.999  0.011373797    347.81029    48.589554    64238.679 
     800   -13169.234    3.1883937   -13166.046  0.011373797    379.48441    53.014471    64238.679 
     810   -13168.908     2.817077   -13166.091  0.011373797    335.29009    46.840467    64238.679 
     820   -13168.507     2.380018   -13166.127  0.011373797    283.27108    39.573342    64238.679 
     830   -13168.574    2.4124761   -13166.162  0.011373797    287.13426    40.113034    64238.679 
     840   -13168.502    2.3181209   -13166.184  0.011373797    275.90406     38.54416    64238.679 
     850   -13168.597    2.3951076   -13166.202  0.011373797    285.06706    39.824242    64238.679 
     860   -13168.855     2.639563   -13166.216  0.011373797    314.16227    43.888883    64238.679 
     870    -13168.58     2.353697   -13166.226  0.011373797    280.13834    39.135695    64238.679 
     880   -13168.657    2.4203899   -13166.237  0.011373797    288.07617     40.24462    64238.679 
     890   -13168.867    2.6231974   -13166.244  0.011373797    312.21444    43.616767    64238.679 
     900   -13168.849    2.5949334   -13166.254  0.011373797    308.85044    43.146813    64238.679 
     910   -13169.121    2.8582037   -13166.263  0.011373797    340.18502    47.524294    64238.679 
     920   -13169.008    2.7304689   -13166.277  0.011373797    324.98195    45.400405    64238.679 
     930   -13168.827    2.5316229   -13166.296  0.011373797    301.31519    42.094127    64238.679 
     940   -13168.903    2.5839186   -13166.319  0.011373797    307.53945    42.963666    64238.679 
     950   -13169.001    2.6555987   -13166.345  0.011373797    316.07085    44.155513    64238.679 
     960   -13169.133    2.7651951   -13166.368  0.011373797    329.11508    45.977809    64238.679 
     970   -13169.093    2.6956365   -13166.397  0.011373797    320.83618    44.821236    64238.679 
     980   -13168.907    2.4825202   -13166.425  0.011373797    295.47095     41.27768    64238.679 
     990    -13168.92    2.4640518   -13166.456  0.011373797    293.27284    40.970601    64238.679 
    1000    -13169.17    2.6764184   -13166.494  0.011373797    318.54882    44.501689    64238.679 
    1010   -13169.378    2.8480145    -13166.53  0.011373797    338.97229    47.354874    64238.679 
    1020   -13169.204    2.6312764   -13166.573  0.011373797      313.176    43.751099    64238.679 
    1030   -13168.978    2.3636599   -13166.614  0.011373797    281.32414    39.301352    64238.679 
    1040   -13168.963    2.3025533    -13166.66  0.011373797    274.05119    38.285311    64238.679 
    1050   -13169.176    2.4738994   -13166.702  0.011373797     294.4449    41.134339    64238.679 
    1060   -13169.353    2.6081162   -13166.744  0.011373797    310.41946    43.366006    64238.679 
    1070   -13169.091    2.3188958   -13166.772  0.011373797    275.99629    38.557044    64238.679 
    1080   -13169.068    2.2560779   -13166.812  0.011373797    268.51966     37.51255    64238.679 
    1090   -13169.451    2.6037512   -13166.847  0.011373797    309.89994    43.293429    64238.679 
    1100   -13169.474    2.5931561    -13166.88  0.011373797     308.6389     43.11726    64238.679 
    1110   -13169.505    2.5858892   -13166.919  0.011373797      307.774    42.996432    64238.679 
    1120   -13169.437    2.4777142   -13166.959  0.011373797    294.89894    41.197769    64238.679 
    1130   -13169.209    2.2229909   -13166.986  0.011373797    264.58164    36.962402    64238.679 
    1140   -13169.216    2.1969551   -13167.019  0.011373797    261.48283    36.529496    64238.679 
    1150   -13169.496    2.4480643   -13167.048  0.011373797       291.37    40.704771    64238.679 
    1160    -13169.59    2.5158193   -13167.074  0.011373797    299.43423    41.831355    64238.679 
    1170   -13169.292    2.2017148    -13167.09  0.011373797    262.04934    36.608637    64238.679 
    1180   -13169.229    2.1179272   -13167.112  0.011373797    252.07689    35.215473    64238.679 
    1190   -13169.458    2.3303912   -13167.128  0.011373797    277.36447    38.748182    64238.679 
    1200   -13169.379    2.2437441   -13167.135  0.011373797    267.05169    37.307472    64238.679 
    1210   -13169.449    2.3031486   -13167.146  0.011373797    274.12205     38.29521    64238.679 
    1220   -13169.712    2.5577003   -13167.154  0.011373797    304.41893    42.527725    64238.679 
    1230   -13169.343    2.1922109   -13167.151  0.011373797    260.91818    36.450613    64238.679 
    1240   -13169.114    1.9685856   -13167.146  0.011373797    234.30216     32.73232    64238.679 
    1250   -13169.449    2.3105113   -13167.139  0.011373797    274.99835    38.417631    64238.679 
    1260   -13169.385    2.2602226   -13167.125  0.011373797    269.01297    37.581465    64238.679 
    1270   -13169.126    2.0338993   -13167.092  0.011373797    242.07584    33.818313    64238.679 
    1280   -13169.065     2.025595    -13167.04  0.011373797    241.08746    33.680235    64238.679 
    1290   -13169.171      2.20174   -13166.969  0.011373797    262.05233    36.609056    64238.679 
    1300   -13169.331    2.4514475    -13166.88  0.011373797    291.77267    40.761025    64238.679 
    1310   -13169.492    2.7210271   -13166.771  0.011373797    323.85818    45.243413    64238.679 
    1320   -13169.303    2.6343403   -13166.668  0.011373797    313.54066    43.802043    64238.679 
    1330   -13168.985      2.41129   -13166.574  0.011373797    286.99309    40.093312    64238.679 
    1340   -13168.941    2.4554895   -13166.486  0.011373797    292.25374    40.828232    64238.679 
    1350   -13169.144    2.7285109   -13166.415  0.011373797    324.74891    45.367849    64238.679 
    1360   -13169.156    2.7997372   -13166.357  0.011373797     333.2263    46.552152    64238.679 
    1370   -13168.936    2.6313054   -13166.304  0.011373797    313.17945    43.751581    64238.679 
    1380   -13168.768    2.5036171   -13166.264  0.011373797    297.98192    41.628467    64238.679 
    1390   -13168.771    2.5465851   -13166.225  0.011373797      303.096    42.342909    64238.679 
    1400    -13168.48    2.2884002   -13166.192  0.011373797    272.36668    38.049983    64238.679 
    1410   -13168.694    2.5330626   -13166.161  0.011373797    301.48654    42.118066    64238.679 
    1420   -13168.949    2.8192681    -13166.13  0.011373797    335.55088    46.876899    64238.679 
    1430   -13168.652    2.5573551   -13166.095  0.011373797    304.37785    42.521985    64238.679 
    1440   -13168.791    2.7233035   -13166.068  0.011373797    324.12912    45.281264    64238.679 
    1450    -13168.78    2.7360239   -13166.044  0.011373797    325.64311     45.49277    64238.679 
    1460    -13168.59    2.5615931   -13166.028  0.011373797    304.88225    42.592451    64238.679 
    1470   -13168.852    2.8344874   -13166.017  0.011373797    337.36229    47.129956    64238.679 
    1480   -13168.795    2.7940161   -13166.001  0.011373797    332.54537    46.457025    64238.679 
    1490   -13168.582    2.5874057   -13165.995  0.011373797    307.95448    43.021646    64238.679 
    1500   -13169.028    3.0315192   -13165.997  0.011373797    360.81313    50.406068    64238.679 
    1510   -13169.153    3.1453495   -13166.008  0.011373797    374.36127    52.298762    64238.679 
    1520   -13169.116     3.079128   -13166.037  0.011373797    366.47955    51.197674    64238.679 
    1530   -13168.987     2.915458   -13166.072  0.011373797    346.99945     48.47628    64238.679 
    1540   -13168.657    2.5429046   -13166.114  0.011373797    302.65794    42.281712    64238.679 
    1550   -13168.738    2.5744405   -13166.164  0.011373797    306.41136    42.806069    64238.679 
    1560   -13169.087    2.8670872    -13166.22  0.011373797    341.24233    47.672002    64238.679 
    1570   -13169.031     2.750173   -13166.281  0.011373797    327.32714    45.728031    64238.679 
    1580   -13168.767     2.430437   -13166.336  0.011373797    289.27198    40.411676    64238.679 
    1590   -13168.711    2.3220873   -13166.389  0.011373797    276.37614    38.610109    64238.679 
    1600   -13168.845    2.4033522   -13166.441  0.011373797    286.04833    39.961328    64238.679 
    1610   -13169.352    2.8558662   -13166.496  0.011373797    339.90681    47.485427    64238.679 
    1620   -13169.358    2.8104218   -13166.548  0.011373797    334.49798    46.729808    64238.679 
    1630   -13168.857    2.2597369   -13166.598  0.011373797    268.95517     37.57339    64238.679 
    1640   -13168.957    2.3199153   -13166.637  0.011373797    276.11763    38.573996    64238.679 
    1650   -13169.287    2.6111485   -13166.676  0.011373797    310.78037    43.416426    64238.679 
    1660   -13169.072    2.3548979   -13166.717  0.011373797    280.28127    39.155662    64238.679 
    1670   -13169.139    2.3899977   -13166.749  0.011373797    284.45888    39.739279    64238.679 
    1680   -13169.128    2.3542803   -13166.774  0.011373797    280.20776    39.145393    64238.679 
    1690   -13168.835    2.0500218   -13166.785  0.011373797    243.99475    34.086387    64238.679 
    1700   -13169.051    2.2530759   -13166.798  0.011373797    268.16236    37.462634    64238.679 
    1710   -13169.381     2.570532    -13166.81  0.011373797    305.94616    42.741081    64238.679 
    1720   -13169.243    2.4291238   -13166.814  0.011373797    289.11568    40.389841    64238.679 
    1730   -13169.133    2.3166087   -13166.816  0.011373797    275.72407    38.519016    64238.679 
    1740   -13169.016    2.2043935   -13166.811  0.011373797    262.36816    36.653177    64238.679 
    1750   -13168.961    2.1542286   -13166.807  0.011373797     256.3975    35.819068    64238.679 
    1760   -13169.337    2.5346595   -13166.802  0.011373797     301.6766    42.144618    64238.679 
    1770   -13169.107     2.320152   -13166.787  0.011373797     276.1458    38.577931    64238.679 
    1780   -13168.811    2.0415083   -13166.769  0.011373797    242.98147     33.94483    64238.679 
    1790     -13169.1    2.3564611   -13166.743  0.011373797    280.46733    39.181655    64238.679 
    1800   -13169.234    2.5232219   -13166.711  0.011373797    300.31529    41.954441    64238.679 
    1810   -13169.426    2.7425916   -13166.683  0.011373797     326.4248    45.601973    64238.679 
    1820   -13169.529    2.8707417   -13166.659  0.011373797     341.6773    47.732767    64238.679 
    1830   -13168.953    2.3228591    -13166.63  0.011373797      276.468    38.622943    64238.679 
    1840   -13168.763    2.1598437   -13166.603  0.011373797    257.06582    35.912433    64238.679 
    1850    -13168.94    2.3625654   -13166.578  0.011373797    281.19387    39.283153    64238.679 
    1860   -13168.977    2.4275958   -13166.549  0.011373797    288.93382    40.364435    64238.679 
    1870   -13169.021    2.5080973   -13166.512  0.011373797    298.51515    41.702959    64238.679 
    1880    -13168.89    2.4249439   -13166.465  0.011373797    288.61819     40.32034    64238.679 
    1890   -13168.939    2.5156162   -13166.424  0.011373797    299.41006    41.827979    64238.679 
    1900   -13168.998    2.6321604   -13166.366  0.011373797    313.28121    43.765797    64238.679 
    1910   -13168.905    2.5901761   -13166.315  0.011373797    308.28422     43.06771    64238.679 
    1920   -13169.037     2.774548   -13166.263  0.011373797    330.22827    46.133324    64238.679 
    1930   -13168.823    2.6184721   -13166.205  0.011373797    311.65202    43.538197    64238.679 
    1940   -13168.596    2.4467761   -13166.149  0.011373797    291.21667    40.683352    64238.679 
    1950   -13168.836    2.7439448   -13166.092  0.011373797    326.58586    45.624474    64238.679 
    1960   -13168.973    2.9390881   -13166.034  0.011373797    349.81192    48.869185    64238.679 
    1970   -13168.957    2.9893674   -13165.968  0.011373797     355.7962    49.705196    64238.679 
    1980   -13169.006    3.0934712   -13165.912  0.011373797    368.18669    51.436164    64238.679 
    1990    -13168.83    2.9707534   -13165.859  0.011373797    353.58074    49.395695    64238.679 
    2000   -13168.426    2.6150067   -13165.811  0.011373797    311.23958    43.480578    64238.679 
    2010   -13168.779    3.0121174   -13165.767  0.011373797    358.50391    50.083468    64238.679 
    2020   -13169.184    3.4612047   -13165.722  0.011373797    411.95453     57.55059    64238.679 
    2030    -13168.87    3.1960705   -13165.674  0.011373797    380.39811    53.142116    64238.679 
    2040   -13168.732    3.0998279   -13165.633  0.011373797    368.94327    51.541859    64238.679 
    2050    -13168.64    3.0315919   -13165.608  0.011373797    360.82178    50.407277    64238.679 
    2060   -13168.586    2.9915883   -13165.594  0.011373797    356.06053    49.742124    64238.679 
    2070   -13168.611     3.033856   -13165.577  0.011373797    361.09126    50.444923    64238.679 
    2080   -13168.497    2.9259037   -13165.571  0.011373797    348.24271    48.649965    64238.679 
    2090   -13168.523    2.9468338   -13165.577  0.011373797    350.73382    48.997976    64238.679 
    2100   -13168.513    2.9240992   -13165.589  0.011373797    348.02794    48.619961    64238.679 
    2110     -13168.7    3.0799347    -13165.62  0.011373797    366.57556    51.211088    64238.679 
    2120   -13168.964    3.2903335   -13165.674  0.011373797    391.61734    54.709458    64238.679 
    2130   -13168.703    2.9644217   -13165.739  0.011373797    352.82714    49.290415    64238.679 
    2140   -13168.545    2.7239182   -13165.821  0.011373797    324.20228    45.291484    64238.679 
    2150    -13168.81    2.8994845    -13165.91  0.011373797    345.09828    48.210684    64238.679 
    2160   -13168.663    2.6697935   -13165.993  0.011373797    317.76033    44.391535    64238.679 
    2170   -13168.587    2.5114893   -13166.075  0.011373797    298.91887    41.759359    64238.679 
    2180   -13168.836    2.6845709   -13166.151  0.011373797    319.51914    44.637244    64238.679 
    2190   -13168.742    2.5219244    -13166.22  0.011373797    300.16087    41.932868    64238.679 
    2200   -13168.678     2.396733   -13166.281  0.011373797    285.26051    39.851269    64238.679 
    2210   -13169.158    2.8121792   -13166.346  0.011373797    334.70715    46.759029    64238.679 
    2220    -13168.92    2.5211684   -13166.399  0.011373797    300.07088    41.920297    64238.679 
    2230   -13168.743    2.2957331   -13166.447  0.011373797    273.23945    38.171911    64238.679 
    2240   -13169.006    2.5141794   -13166.492  0.011373797    299.23905    41.804089    64238.679 
    2250   -13169.022    2.4902433   -13166.532  0.011373797    296.39017    41.406096    64238.679 
    2260   -13169.099    2.5279771   -13166.571  0.011373797    300.88126    42.033508    64238.679 
    2270   -13168.987    2.3821157   -13166.605  0.011373797    283.52076    39.608223    64238.679 
    2280   -13168.987    2.3498431   -13166.637  0.011373797    279.67965    39.071614    64238.679 
    2290   -13169.169    2.5037175   -13166.665  0.011373797    297.99387    41.630136    64238.679 
    2300    -13169.06    2.3706793   -13166.689  0.011373797    282.15959    39.418065    64238.679 
    2310   -13169.308    2.5917823   -13166.716  0.011373797    308.47539    43.094417    64238.679 
    2320   -13169.294    2.5524342   -13166.742  0.011373797    303.79216    42.440164    64238.679 
    2330   -13168.833    2.0742138   -13166.759  0.011373797     246.8741    34.488636    64238.679 
    2340    -13169.07    2.2878865   -13166.782  0.011373797    272.30554    38.041442    64238.679 
    2350   -13169.259    2.4651722   -13166.794  0.011373797    293.40619     40.98923    64238.679 
    2360   -13169.102    2.3039907   -13166.798  0.011373797    274.22227    38.309212    64238.679 
    2370   -13169.197    2.3904681   -13166.807  0.011373797    284.51486      39.7471    64238.679 
    2380   -13169.211    2.4019094   -13166.809  0.011373797    285.87661    39.937338    64238.679 
    2390   -13169.169    2.3593379    -13166.81  0.011373797    280.80973    39.229489    64238.679 
    2400   -13169.038    2.2313959   -13166.807  0.011373797      265.582    37.102154    64238.679 
    2410   -13169.043    2.2413769   -13166.802  0.011373797    266.76995    37.268112    64238.679 
    2420   -13168.839    2.0476649   -13166.791  0.011373797    243.71424    34.047199    64238.679 
    2430   -13168.664    1.8970378   -13166.767  0.011373797    225.78651    31.542672    64238.679 
    2440   -13169.109    2.3660938   -13166.743  0.011373797    281.61382     39.34182    64238.679 
    2450   -13169.336    2.6372454   -13166.699  0.011373797    313.88643    43.850347    64238.679 
    2460   -13169.314    2.6621066   -13166.652  0.011373797    316.84543    44.263722    64238.679 
    2470   -13169.551    2.9467814   -13166.604  0.011373797    350.72758    48.997104    64238.679 
    2480   -13169.327    2.7621834   -13166.565  0.011373797    328.75663    45.927733    64238.679 
    2490   -13168.949    2.4182347   -13166.531  0.011373797    287.81966    40.208784    64238.679 
    2500    -13168.96    2.4605774   -13166.499  0.011373797    292.85931     40.91283    64238.679 
    2510   -13169.018    2.5497155   -13166.468  0.011373797    303.46858     42.39496    64238.679 
    2520   -13169.036    2.6083505   -13166.428  0.011373797    310.44735    43.369903    64238.679 
    2530   -13169.171    2.7864429   -13166.384  0.011373797      331.644    46.331103    64238.679 
    2540   -13169.412    3.0656379   -13166.346  0.011373797    364.87396    50.973371    64238.679 
    2550   -13169.157    2.8348468   -13166.322  0.011373797    337.40507    47.135932    64238.679 
    2560   -13169.032    2.7330141   -13166.299  0.011373797    325.28488    45.442726    64238.679 
    2570   -13168.926    2.6464795   -13166.279  0.011373797    314.98548    44.003885    64238.679 
    2580   -13168.727    2.4613172   -13166.265  0.011373797    292.94736    40.925132    64238.679 
    2590   -13168.952    2.7016039   -13166.251  0.011373797    321.54642    44.920458    64238.679 
    2600    -13168.81    2.5755755   -13166.234  0.011373797    306.54645    42.824942    64238.679 
    2610   -13168.683    2.4658588   -13166.217  0.011373797    293.48791    41.000646    64238.679 
    2620   -13169.001    2.8030129   -13166.198  0.011373797    333.61617    46.606618    64238.679 
    2630   -13168.625    2.4476765   -13166.177  0.011373797    291.32384    40.698323    64238.679 
    2640   -13168.681    2.5231317   -13166.158  0.011373797    300.30456    41.952942    64238.679 
    2650   -13169.112    2.9761767   -13166.136  0.011373797    354.22623     49.48587    64238.679 
    2660   -13168.695    2.5817124   -13166.114  0.011373797    307.27686    42.926982    64238.679 
    2670   -13168.691    2.6000507   -13166.091  0.011373797     309.4595    43.231899    64238.679 
    2680   -13168.824    2.7567051   -13166.068  0.011373797     328.1046    45.836644    64238.679 
    2690   -13168.702    2.6525304    -13166.05  0.011373797    315.70566    44.104496    64238.679 
    2700    -13169.22    3.1866044   -13166.033  0.011373797    379.27146    52.984721    64238.679 
    2710   -13169.148    3.1291602   -13166.019  0.011373797    372.43442    52.029578    64238.679 
    2720   -13168.543    2.5324166   -13166.011  0.011373797    301.40965    42.107324    64238.679 
    2730   -13168.633    2.6163533   -13166.016  0.011373797    311.39985    43.502968    64238.679 
    2740    -13168.71    2.6849472   -13166.025  0.011373797    319.56393    44.643502    64238.679 
    2750   -13168.549    2.5187214    -13166.03  0.011373797    299.77964     41.87961    64238.679 
    2760   -13168.798    2.7605499   -13166.037  0.011373797     328.5622    45.900572    64238.679 
    2770   -13168.843    2.7913543   -13166.051  0.011373797    332.22856    46.412767    64238.679 
    2780   -13168.857    2.7788246   -13166.079  0.011373797    330.73727    46.204431    64238.679 
    2790   -13168.981      2.86957   -13166.112  0.011373797    341.53784    47.713286    64238.679 
    2800    -13169.15    2.9929691   -13166.157  0.011373797    356.22487    49.765082    64238.679 
    2810   -13169.112    2.8942224   -13166.218  0.011373797    344.47199    48.123189    64238.679 
    2820   -13169.074    2.7871875   -13166.287  0.011373797    331.73263    46.343484    64238.679 
    2830   -13169.326    2.9545567   -13166.372  0.011373797    351.65301    49.126388    64238.679 
    2840   -13169.285    2.8322821   -13166.453  0.011373797    337.09982    47.093287    64238.679 
    2850   -13168.835     2.306913   -13166.528  0.011373797    274.57009    38.357802    64238.679 
    2860   -13168.906    2.3051695   -13166.601  0.011373797    274.36257    38.328812    64238.679 
    2870   -13169.173    2.5108588   -13166.662  0.011373797    298.84383    41.748876    64238.679 
    2880    -13169.07    2.3651603   -13166.705  0.011373797    281.50271    39.326298    64238.679 
    2890   -13169.213    2.4654828   -13166.747  0.011373797    293.44316    40.994395    64238.679 
    2900   -13169.382    2.5900629   -13166.792  0.011373797    308.27075    43.065828    64238.679 
    2910   -13169.227    2.3954647   -13166.831  0.011373797    285.10956     39.83018    64238.679 
    2920   -13169.324    2.4579626   -13166.866  0.011373797     292.5481    40.869354    64238.679 
    2930   -13169.438    2.5408355   -13166.898  0.011373797    302.41168    42.247309    64238.679 
    2940   -13169.317    2.3968551   -13166.921  0.011373797    285.27505    39.853299    64238.679 
    2950   -13169.126     2.184914   -13166.941  0.011373797     260.0497    36.329285    64238.679 
    2960   -13169.175    2.2177041   -13166.957  0.011373797     263.9524    36.874497    64238.679 
    2970   -13169.403    2.4316575   -13166.972  0.011373797    289.41724    40.431969    64238.679 
    2980   -13169.278     2.302988   -13166.975  0.011373797    274.10293     38.29254    64238.679 
    2990   -13169.184    2.2119985   -13166.972  0.011373797     263.2733    36.779627    64238.679 
    3000    -13169.39    2.4193667    -13166.97  0.011373797    287.95439    40.227607    64238.679 
    3010   -13169.271    2.3022062   -13166.968  0.011373797    274.00988     38.27954    64238.679 
    3020   -13169.256    2.2946776   -13166.961  0.011373797    273.11382     38.15436    64238.679 
    3030   -13169.358    2.4080811    -13166.95  0.011373797    286.61118    40.039958    64238.679 
    3040   -13169.246    2.3178645   -13166.928  0.011373797    275.87354    38.539896    64238.679 
    3050   -13169.134    2.2283135   -13166.905  0.011373797    265.21513    37.050903    64238.679 
    3060   -13169.266    2.3850632   -13166.881  0.011373797    283.87156     39.65723    64238.679 
    3070   -13169.435    2.5848035    -13166.85  0.011373797    307.64477    42.978379    64238.679 
    3080   -13169.126    2.3069534   -13166.819  0.011373797    274.57489    38.358473    64238.679 
    3090   -13168.966    2.1907415   -13166.775  0.011373797    260.74329    36.426181    64238.679 
    3100   -13169.222    2.4885738   -13166.733  0.011373797    296.19146    41.378336    64238.679 
    3110   -13169.182    2.4956925   -13166.686  0.011373797    297.03872      41.4967    64238.679 
    3120   -13169.126    2.4985891   -13166.627  0.011373797    297.38348    41.544864    64238.679 
    3130   -13169.199    2.6344652   -13166.565  0.011373797    313.55553    43.804119    64238.679 
    3140   -13169.231    2.7266151   -13166.505  0.011373797    324.52326    45.336327    64238.679 
    3150   -13169.284     2.834101    -13166.45  0.011373797     337.3163    47.123531    64238.679 
    3160   -13168.996    2.5929939   -13166.403  0.011373797    308.61959    43.114563    64238.679 
    3170   -13168.789    2.4275848   -13166.361  0.011373797    288.93252    40.364252    64238.679 
    3180   -13168.903    2.5895728   -13166.314  0.011373797    308.21241    43.057679    64238.679 
    3190   -13168.958    2.6864583   -13166.272  0.011373797    319.74378    44.668626    64238.679 
    3200   -13169.227    2.9922109   -13166.234  0.011373797    356.13463    49.752475    64238.679 
    3210   -13169.455    3.2530398   -13166.202  0.011373797    387.17863    54.089363    64238.679 
    3220   -13169.174    2.9861059   -13166.188  0.011373797    355.40801    49.650966    64238.679 
    3230   -13168.779     2.599413    -13166.18  0.011373797     309.3836    43.221295    64238.679 
    3240   -13168.534    2.3543004    -13166.18  0.011373797    280.21016    39.145728    64238.679 
    3250   -13168.562    2.3826861   -13166.179  0.011373797    283.58864    39.617706    64238.679 
    3260   -13168.902    2.7283004   -13166.174  0.011373797    324.72385    45.364349    64238.679 
    3270   -13168.788    2.6198507   -13166.168  0.011373797    311.81611    43.561121    64238.679 
    3280   -13168.587    2.4230698   -13166.164  0.011373797    288.39514     40.28918    64238.679 
    3290    -13168.97    2.7960173   -13166.174  0.011373797    332.78355    46.490299    64238.679 
    3300   -13168.805    2.6246672    -13166.18  0.011373797    312.38937    43.641205    64238.679 
    3310   -13168.441    2.2672142   -13166.174  0.011373797    269.84512    37.697717    64238.679 
    3320   -13168.399    2.2243338   -13166.175  0.011373797    264.74146     36.98473    64238.679 
    3330   -13168.539     2.364852   -13166.174  0.011373797    281.46602    39.321173    64238.679 
    3340   -13168.622    2.4519508    -13166.17  0.011373797    291.83257    40.769394    64238.679 
    3350   -13168.735    2.5780966   -13166.157  0.011373797    306.84651     42.86686    64238.679 
    3360   -13168.691    2.5530161   -13166.138  0.011373797    303.86141    42.449839    64238.679 
    3370   -13168.805    2.6826608   -13166.122  0.011373797    319.29181    44.605485    64238.679 
    3380   -13168.839    2.7398572   -13166.099  0.011373797    326.09935    45.556508    64238.679 
    3390   -13168.532    2.4683734   -13166.064  0.011373797    293.78719    41.042456    64238.679 
    3400   -13168.534    2.4932152   -13166.041  0.011373797    296.74388    41.455511    64238.679 
    3410   -13168.742    2.7363945   -13166.006  0.011373797    325.68722    45.498933    64238.679 
    3420   -13168.653    2.6937394    -13165.96  0.011373797    320.61038    44.789692    64238.679 
    3430   -13168.621     2.705414   -13165.916  0.011373797     321.9999    44.983809    64238.679 
    3440   -13168.774    2.8949871   -13165.879  0.011373797    344.56299    48.135903    64238.679 
    3450   -13168.567    2.7222538   -13165.845  0.011373797    324.00418     45.26381    64238.679 
    3460   -13168.302    2.4909849   -13165.811  0.011373797    296.47843    41.418426    64238.679 
    3470   -13168.438    2.6554992   -13165.782  0.011373797    316.05902     44.15386    64238.679 
    3480   -13168.455    2.7084307   -13165.747  0.011373797    322.35895    45.033969    64238.679 
    3490   -13168.587    2.8667859    -13165.72  0.011373797    341.20648    47.666994    64238.679 
    3500   -13169.037    3.3343168   -13165.703  0.011373797    396.85227    55.440784    64238.679 
    3510   -13168.901    3.2013207     -13165.7  0.011373797    381.02299    53.229413    64238.679 
    3520   -13168.603    2.8917135   -13165.711  0.011373797    344.17337    48.081473    64238.679 
    3530   -13168.612    2.8776039   -13165.735  0.011373797    342.49404    47.846867    64238.679 
    3540    -13168.24    2.4811666   -13165.759  0.011373797    295.30985    41.255174    64238.679 
    3550   -13168.574    2.7817493   -13165.792  0.011373797    331.08537    46.253061    64238.679 
    3560   -13168.836    3.0010295   -13165.835  0.011373797    357.18422    49.899105    64238.679 
    3570    -13168.39    2.5142339   -13165.875  0.011373797    299.24554    41.804995    64238.679 
    3580   -13168.628    2.7033588   -13165.925  0.011373797    321.75529    44.949637    64238.679 
    3590   -13168.767    2.7860197   -13165.981  0.011373797    331.59364    46.324067    64238.679 
    3600   -13168.679    2.6375226   -13166.041  0.011373797    313.91943    43.854957    64238.679 
    3610   -13169.073    2.9709599   -13166.102  0.011373797    353.60533    49.399129    64238.679 
    3620   -13168.949    2.7742564   -13166.175  0.011373797    330.19356    46.128474    64238.679 
    3630   -13168.867    2.6207669   -13166.246  0.011373797    311.92516    43.576355    64238.679 
    3640   -13169.196    2.8774268   -13166.319  0.011373797    342.47296    47.843923    64238.679 
    3650   -13169.267    2.8686909   -13166.398  0.011373797    341.43321    47.698668    64238.679 
    3660   -13168.974    2.5113886   -13166.462  0.011373797    298.90689    41.757686    64238.679 
    3670   -13168.897    2.3758017   -13166.522  0.011373797    282.76925    39.503237    64238.679 
    3680   -13169.004    2.4343138    -13166.57  0.011373797     289.7334    40.476137    64238.679 
    3690   -13169.008    2.3952849   -13166.613  0.011373797    285.08816    39.827191    64238.679 
    3700   -13169.114    2.4686256   -13166.646  0.011373797    293.81721     41.04665    64238.679 
    3710   -13169.311    2.6269262   -13166.684  0.011373797    312.65824    43.678768    64238.679 
    3720   -13169.323    2.6056762   -13166.718  0.011373797    310.12905    43.325436    64238.679 
    3730    -13169.42    2.6689419   -13166.751  0.011373797    317.65897    44.377376    64238.679 
    3740   -13169.165    2.3840177   -13166.781  0.011373797    283.74713    39.639846    64238.679 
    3750   -13169.234    2.4268089   -13166.808  0.011373797    288.84016     40.35135    64238.679 
    3760   -13169.369    2.5322677   -13166.837  0.011373797    301.39193    42.104849    64238.679 
    3770   -13169.014    2.1592191   -13166.854  0.011373797    256.99148    35.902047    64238.679 
    3780   -13168.976    2.1090177   -13166.867  0.011373797    251.01648    35.067332    64238.679 
    3790   -13169.182    2.3098083   -13166.872  0.011373797    274.91469    38.405944    64238.679 
    3800   -13169.159    2.2862589   -13166.873  0.011373797    272.11182    38.014379    64238.679 
    3810   -13169.105    2.2328256   -13166.873  0.011373797    265.75216    37.125927    64238.679 
    3820    -13169.03    2.1601563    -13166.87  0.011373797    257.10302    35.917629    64238.679 
    3830   -13168.925     2.071021   -13166.854  0.011373797    246.49409    34.435549    64238.679 
    3840   -13168.906    2.0769524   -13166.829  0.011373797    247.20004    34.534171    64238.679 
    3850   -13169.133    2.3274437   -13166.805  0.011373797    277.01366    38.699172    64238.679 
    3860   -13169.184    2.4123694   -13166.771  0.011373797    287.12157    40.111261    64238.679 
    3870       -13169    2.2700489    -13166.73  0.011373797     270.1825    37.744851    64238.679 
    3880   -13168.932    2.2426119   -13166.689  0.011373797    266.91693    37.288646    64238.679 
    3890   -13168.743    2.1057886   -13166.637  0.011373797    250.63214     35.01364    64238.679 
    3900   -13168.744    2.1621216   -13166.582  0.011373797    257.33693    35.950307    64238.679 
    3910   -13168.932    2.4116041    -13166.52  0.011373797    287.03048    40.098535    64238.679 
    3920   -13168.908    2.4499936   -13166.458  0.011373797    291.59962     40.73685    64238.679 
    3930    -13168.75    2.3594108   -13166.391  0.011373797     280.8184    39.230699    64238.679 
    3940   -13168.703    2.3712811   -13166.332  0.011373797    282.23122    39.428072    64238.679 
    3950   -13168.833    2.5533609    -13166.28  0.011373797    303.90245    42.455572    64238.679 
    3960   -13168.935    2.7082033   -13166.226  0.011373797    322.33188    45.030188    64238.679 
    3970   -13168.952    2.7691496   -13166.183  0.011373797    329.58574    46.043562    64238.679 
    3980    -13169.07    2.9131678   -13166.157  0.011373797    346.72687    48.438199    64238.679 
    3990   -13168.845    2.7038349   -13166.141  0.011373797    321.81195    44.957553    64238.679 
    4000   -13168.665    2.5349024    -13166.13  0.011373797    301.70552    42.148657    64238.679 
    4010   -13168.756    2.6344363   -13166.121  0.011373797    313.55209    43.803639    64238.679 
    4020   -13168.492    2.3753922   -13166.117  0.011373797    282.72053    39.496429    64238.679 
    4030   -13168.562     2.451719    -13166.11  0.011373797    291.80498     40.76554    64238.679 
    4040   -13168.849    2.7471244   -13166.102  0.011373797     326.9643    45.677342    64238.679 
    4050   -13168.788    2.6875879     -13166.1  0.011373797    319.87823    44.687409    64238.679 
    4060   -13168.831    2.7334656   -13166.098  0.011373797    325.33862    45.450233    64238.679 
    4070    -13168.92     2.810323    -13166.11  0.011373797    334.48623    46.728166    64238.679 
    4080   -13168.611    2.4904495   -13166.121  0.011373797     296.4147    41.409523    64238.679 
    4090   -13168.598    2.4693748   -13166.128  0.011373797    293.90638    41.059107    64238.679 
    4100   -13168.715    2.5784171   -13166.136  0.011373797    306.88465    42.872189    64238.679 
    4110   -13168.593     2.444801   -13166.148  0.011373797     290.9816    40.650511    64238.679 
    4120   -13168.985    2.8266753   -13166.159  0.011373797    336.43249    47.000061    64238.679 
    4130   -13168.956    2.7853302   -13166.171  0.011373797    331.51158    46.312603    64238.679 
    4140   -13168.658    2.4679138    -13166.19  0.011373797    293.73249    41.034815    64238.679 
    4150   -13168.905    2.6941852   -13166.211  0.011373797    320.66344    44.797104    64238.679 
    4160    -13168.91    2.6779854   -13166.232  0.011373797    318.73533    44.527745    64238.679 
    4170   -13168.733    2.4711884   -13166.262  0.011373797    294.12224    41.089264    64238.679 
    4180    -13168.99    2.6981697   -13166.292  0.011373797    321.13768    44.863355    64238.679 
    4190   -13168.855    2.5326392   -13166.323  0.011373797    301.43615    42.111026    64238.679 
    4200   -13168.716     2.360335   -13166.355  0.011373797     280.9284    39.246067    64238.679 
    4210   -13169.033    2.6429536    -13166.39  0.011373797    314.56583     43.94526    64238.679 
    4220   -13168.891    2.4609261    -13166.43  0.011373797    292.90081    40.918628    64238.679 
    4230   -13168.868    2.4033592   -13166.465  0.011373797    286.04916    39.961444    64238.679 
    4240   -13169.081    2.5763118   -13166.505  0.011373797    306.63408    42.837184    64238.679 
    4250   -13169.047    2.5026538   -13166.544  0.011373797    297.86727    41.612449    64238.679 
    4260   -13168.884    2.3004581   -13166.583  0.011373797    273.80182    38.250474    64238.679 
    4270   -13168.938    2.3151806   -13166.623  0.011373797     275.5541     38.49527    64238.679 
    4280   -13169.011    2.3446485   -13166.666  0.011373797    279.06138    38.985242    64238.679 
    4290   -13168.952    2.2498373   -13166.702  0.011373797    267.77691    37.408786    64238.679 
    4300   -13169.121     2.379519   -13166.742  0.011373797     283.2117    39.565046    64238.679 
    4310   -13169.116    2.3331075   -13166.783  0.011373797    277.68777    38.793346    64238.679 
    4320   -13169.113    2.2890464   -13166.824  0.011373797    272.44359    38.060728    64238.679 
    4330   -13169.146    2.2817943   -13166.865  0.011373797    271.58044    37.940144    64238.679 
    4340    -13168.83    1.9287483   -13166.901  0.011373797    229.56071    32.069933    64238.679 
    4350   -13168.939    2.0030959   -13166.936  0.011373797     238.4096    33.306134    64238.679 
    4360   -13169.205    2.2359374   -13166.969  0.011373797    266.12253    37.177667    64238.679 
    4370   -13168.991    1.9991961   -13166.992  0.011373797    237.94545    33.241292    64238.679 
    4380   -13169.014    1.9964321   -13167.017  0.011373797    237.61647    33.195333    64238.679 
    4390   -13168.954    1.9191482   -13167.035  0.011373797     228.4181    31.910308    64238.679 
    4400   -13168.833    1.7863523   -13167.047  0.011373797    212.61266    29.702268    64238.679 
    4410   -13169.141    2.0863251   -13167.054  0.011373797    248.31559    34.690014    64238.679 
    4420   -13169.211    2.1610136    -13167.05  0.011373797    257.20506    35.931885    64238.679 
    4430    -13169.11    2.0758578   -13167.034  0.011373797    247.06976     34.51597    64238.679 
    4440   -13169.229    2.2180186   -13167.011  0.011373797    263.98982    36.879725    64238.679 
    4450   -13169.262    2.2780964   -13166.984  0.011373797    271.14032    37.878659    64238.679 
    4460    -13169.18     2.236122   -13166.944  0.011373797     266.1445    37.180736    64238.679 
    4470   -13169.108    2.2197034   -13166.889  0.011373797    264.19035    36.907739    64238.679 
    4480   -13169.126    2.3047445   -13166.821  0.011373797    274.31199    38.321745    64238.679 
    4490   -13169.096    2.3487557   -13166.747  0.011373797    279.55023    39.053535    64238.679 
    4500   -13169.045    2.3780267   -13166.667  0.011373797    283.03408    39.540233    64238.679 
    4510   -13169.122    2.5345455   -13166.588  0.011373797    301.66303    42.142722    64238.679 
    4520    -13168.89    2.3779201   -13166.512  0.011373797     283.0214    39.538461    64238.679 
    4530   -13168.747    2.3068148    -13166.44  0.011373797     274.5584    38.356169    64238.679 
    4540   -13168.919    2.5442425   -13166.375  0.011373797    302.81718    42.303958    64238.679 
    4550   -13169.023    2.7114335   -13166.312  0.011373797    322.71635    45.083898    64238.679 
    4560   -13169.042    2.7819341    -13166.26  0.011373797    331.10736    46.256134    64238.679 
    4570   -13169.033    2.8185804   -13166.215  0.011373797    335.46903    46.865464    64238.679 
    4580   -13168.908     2.724903   -13166.183  0.011373797    324.31949    45.307859    64238.679 
    4590   -13168.655    2.4978324   -13166.157  0.011373797    297.29342    41.532281    64238.679 
    4600   -13168.669    2.5333277   -13166.136  0.011373797    301.51809    42.122473    64238.679 
    4610   -13168.758    2.6430035   -13166.115  0.011373797    314.57177    43.946089    64238.679 
    4620   -13168.576    2.4782668   -13166.098  0.011373797    294.96471    41.206958    64238.679 
    4630   -13168.765    2.6862354   -13166.078  0.011373797    319.71726    44.664921    64238.679 
    4640   -13168.901    2.8360921   -13166.065  0.011373797    337.55328    47.156637    64238.679 
    4650   -13168.969    2.9152694   -13166.053  0.011373797    346.97701    48.473144    64238.679 
    4660   -13169.232    3.1688493   -13166.064  0.011373797    377.15823      52.6895    64238.679 
    4670    -13169.03    2.9495135   -13166.081  0.011373797    351.05276    49.042532    64238.679 
    4680   -13168.904    2.7993515   -13166.105  0.011373797    333.18039    46.545739    64238.679 
    4690   -13168.824    2.6854109   -13166.139  0.011373797    319.61912    44.651211    64238.679 
    4700   -13168.678    2.5027927   -13166.175  0.011373797     297.8838    41.614759    64238.679 
    4710   -13169.037    2.8188907   -13166.218  0.011373797    335.50596    46.870624    64238.679 
    4720   -13168.983    2.7258779   -13166.258  0.011373797    324.43553     45.32407    64238.679 
    4730   -13168.758     2.456885   -13166.301  0.011373797    292.41984    40.851436    64238.679 
    4740   -13169.007    2.6528283   -13166.354  0.011373797    315.74113     44.10945    64238.679 
    4750   -13169.019    2.6103065   -13166.408  0.011373797    310.68015    43.402426    64238.679 
    4760   -13168.932    2.4767785   -13166.455  0.011373797    294.78758    41.182212    64238.679 
    4770   -13169.042    2.5385072   -13166.503  0.011373797    302.13456    42.208596    64238.679 
    4780   -13168.919    2.3732031   -13166.546  0.011373797    282.45997    39.460029    64238.679 
    4790   -13168.842    2.2589236   -13166.583  0.011373797    268.85836    37.559866    64238.679 
    4800   -13168.787    2.1661317   -13166.621  0.011373797    257.81421    36.016984    64238.679 
    4810    -13168.92    2.2762591   -13166.644  0.011373797    270.92165     37.84811    64238.679 
    4820   -13168.992    2.3310162   -13166.661  0.011373797    277.43886    38.758574    64238.679 
    4830   -13168.722    2.0460955   -13166.676  0.011373797    243.52744    34.021104    64238.679 
    4840   -13168.809    2.1235194   -13166.685  0.011373797    252.74248    35.308456    64238.679 
    4850   -13169.057    2.3722356   -13166.684  0.011373797    282.34482    39.443943    64238.679 
    4860   -13168.786    2.1087948   -13166.677  0.011373797    250.98994    35.063625    64238.679 
    4870    -13168.85    2.1809279   -13166.669  0.011373797    259.57527    36.263006    64238.679 
    4880   -13169.088    2.4347764   -13166.653  0.011373797    289.78846    40.483828    64238.679 
    4890   -13168.861    2.2299326   -13166.631  0.011373797    265.40784    37.077824    64238.679 
    4900   -13169.031    2.4213399    -13166.61  0.011373797    288.18924    40.260416    64238.679 
    4910   -13168.983    2.4074275   -13166.576  0.011373797    286.53337    40.029089    64238.679 
    4920    -13168.75    2.2015346   -13166.548  0.011373797    262.02788     36.60564    64238.679 
    4930   -13169.184      2.67371    -13166.51  0.011373797    318.22647    44.456656    64238.679 
    4940   -13168.927    2.4682318   -13166.459  0.011373797    293.77034    41.040102    64238.679 
    4950   -13168.851    2.4378378   -13166.413  0.011373797    290.15283    40.534732    64238.679 
    4960    -13169.33    2.9713339   -13166.359  0.011373797    353.64984    49.405347    64238.679 
    4970   -13168.814    2.5176423   -13166.297  0.011373797    299.65121    41.861667    64238.679 
    4980   -13169.018    2.7733561   -13166.244  0.011373797    330.08641    46.113505    64238.679 
    4990   -13169.387    3.2117484   -13166.175  0.011373797    382.26411    53.402799    64238.679 
    5000   -13168.836    2.7281042   -13166.108  0.011373797     324.7005    45.361087    64238.679 
    5010   -13168.901    2.8476911   -13166.054  0.011373797     338.9338    47.349497    64238.679 
    5020   -13169.096    3.0996649   -13165.996  0.011373797    368.92387    51.539149    64238.679 
    5030   -13168.741    2.8033343   -13165.938  0.011373797    333.65443    46.611963    64238.679 
    5040   -13168.787    2.9048314   -13165.882  0.011373797    345.73467    48.299588    64238.679 
    5050   -13168.504    2.6819561   -13165.822  0.011373797    319.20793    44.593767    64238.679 
    5060   -13168.197     2.427834   -13165.769  0.011373797    288.96217    40.368395    64238.679 
    5070   -13168.469     2.769921   -13165.699  0.011373797    329.67756    46.056389    64238.679 
    5080   -13168.652    3.0363697   -13165.616  0.011373797    361.39044    50.486719    64238.679 
    5090   -13168.668    3.1410421   -13165.527  0.011373797     373.8486    52.227141    64238.679 
    5100   -13168.983    3.5514599   -13165.432  0.011373797    422.69676    59.051293    64238.679 
    5110    -13168.83    3.4834473   -13165.347  0.011373797    414.60186    57.920425    64238.679 
    5120    -13168.48    3.1853772   -13165.295  0.011373797    379.12539    52.964316    64238.679 
    5130   -13168.726    3.4666019   -13165.259  0.011373797    412.59692    57.640332    64238.679 
    5140   -13168.508    3.2672492   -13165.241  0.011373797    388.86985    54.325629    64238.679 
    5150   -13168.209    2.9719508   -13165.237  0.011373797    353.72326    49.415604    64238.679 
    5160   -13168.335    3.0804287   -13165.255  0.011373797    366.63436    51.219302    64238.679 
    5170    -13168.22    2.9374932   -13165.282  0.011373797    349.62209    48.842666    64238.679 
    5180    -13168.44    3.1136399   -13165.327  0.011373797    370.58718    51.771516    64238.679 
    5190   -13168.574    3.1751413   -13165.399  0.011373797    377.90711     52.79412    64238.679 
    5200   -13168.451    2.9635432   -13165.488  0.011373797    352.72259    49.275809    64238.679 
    5210   -13168.654    3.0522541   -13165.602  0.011373797    363.28101    50.750834    64238.679 
    5220   -13168.428    2.6975357    -13165.73  0.011373797    321.06222    44.852814    64238.679 
    5230   -13168.415    2.5701118   -13165.845  0.011373797    305.89615    42.734094    64238.679 
    5240   -13168.683    2.7356525   -13165.947  0.011373797     325.5989    45.486595    64238.679 
    5250   -13168.538    2.5089827   -13166.029  0.011373797    298.62053    41.717681    64238.679 
    5260    -13168.55    2.4525998   -13166.097  0.011373797    291.90981    40.780184    64238.679 
    5270   -13168.753    2.5953766   -13166.158  0.011373797    308.90319    43.154182    64238.679 
    5280   -13168.577      2.38291   -13166.194  0.011373797    283.61529    39.621429    64238.679 
    5290   -13168.591    2.3677041   -13166.223  0.011373797    281.80548    39.368596    64238.679 
    5300   -13168.822    2.5747501   -13166.248  0.011373797    306.44821    42.811218    64238.679 
    5310   -13168.841    2.5667012   -13166.274  0.011373797    305.49023    42.677386    64238.679 
    5320   -13168.912    2.6178754   -13166.294  0.011373797    311.58101    43.528276    64238.679 
    5330   -13168.742    2.4288863   -13166.313  0.011373797    289.08742    40.385892    64238.679 
    5340   -13168.464    2.1364274   -13166.327  0.011373797    254.27879    35.523082    64238.679 
    5350   -13168.615    2.2748217    -13166.34  0.011373797    270.75056    37.824209    64238.679 
    5360   -13168.475    2.1288364   -13166.346  0.011373797    253.37531    35.396864    64238.679 
    5370   -13168.236    1.8996168   -13166.337  0.011373797    226.09346    31.585554    64238.679 
    5380   -13168.362    2.0336334   -13166.329  0.011373797     242.0442    33.813893    64238.679 
    5390   -13168.235    1.9297959   -13166.306  0.011373797     229.6854    32.087352    64238.679 
    5400   -13168.362    2.0860278   -13166.276  0.011373797    248.28021    34.685072    64238.679 
    5410   -13168.569    2.3340074   -13166.235  0.011373797    277.79487    38.808309    64238.679 
    5420   -13168.379    2.1898365   -13166.189  0.011373797    260.63557    36.411132    64238.679 
    5430   -13168.545    2.4060838   -13166.139  0.011373797    286.37345    40.006748    64238.679 
    5440   -13168.473    2.3882023   -13166.084  0.011373797    284.24519    39.709426    64238.679 
    5450   -13168.328    2.3012351   -13166.027  0.011373797    273.89431    38.263394    64238.679 
    5460   -13168.691    2.7218543    -13165.97  0.011373797    323.95663    45.257167    64238.679 
    5470    -13168.62     2.707028   -13165.913  0.011373797    322.19201    45.010647    64238.679 
    5480   -13168.492    2.6272854   -13165.865  0.011373797    312.70099     43.68474    64238.679 
    5490   -13168.664    2.8408605   -13165.823  0.011373797    338.12082    47.235923    64238.679 
    5500   -13168.502    2.7196511   -13165.782  0.011373797    323.69441    45.220534    64238.679 
    5510   -13168.623    2.8692375   -13165.754  0.011373797    341.49826    47.707756    64238.679 
    5520   -13168.771    3.0327129   -13165.739  0.011373797     360.9552    50.425916    64238.679 
    5530    -13168.43    2.7022288   -13165.727  0.011373797     321.6208    44.930848    64238.679 
    5540   -13168.609    2.8809032   -13165.728  0.011373797    342.88672    47.901725    64238.679 
    5550   -13168.719    2.9861592   -13165.733  0.011373797    355.41436    49.651853    64238.679 
    5560   -13168.287    2.5426595   -13165.744  0.011373797    302.62877    42.277636    64238.679 
    5570    -13168.37    2.6130835   -13165.757  0.011373797    311.01067    43.448599    64238.679 
    5580   -13168.572    2.7896628   -13165.783  0.011373797    332.02724    46.384641    64238.679 
    5590    -13168.44    2.6410995   -13165.799  0.011373797    314.34515    43.914431    64238.679 
    5600     -13168.9    3.0707558    -13165.83  0.011373797    365.48309    51.058467    64238.679 
    5610   -13168.909    3.0355967   -13165.874  0.011373797    361.29843    50.473866    64238.679 
    5620   -13168.462    2.5382251   -13165.924  0.011373797    302.10098    42.203904    64238.679 
    5630   -13168.895    2.9072227   -13165.987  0.011373797    346.01928    48.339349    64238.679 
    5640   -13168.834    2.7857135   -13166.048  0.011373797     331.5572    46.318976    64238.679 
    5650   -13168.556     2.447352   -13166.108  0.011373797    291.28522    40.692928    64238.679 
    5660   -13168.804    2.6317536   -13166.172  0.011373797    313.23279    43.759033    64238.679 
    5670   -13168.649    2.4211162   -13166.228  0.011373797    288.16261    40.256696    64238.679 
    5680   -13168.612     2.334808   -13166.277  0.011373797    277.89017    38.821622    64238.679 
    5690    -13168.76    2.4396265    -13166.32  0.011373797    290.36572    40.564473    64238.679 
    5700   -13168.532    2.1735394   -13166.359  0.011373797    258.69589    36.140155    64238.679 
    5710   -13168.713    2.3260483   -13166.387  0.011373797    276.84759    38.675972    64238.679 
    5720   -13168.856    2.4521736   -13166.404  0.011373797    291.85909    40.773098    64238.679 
    5730   -13168.389    1.9702409   -13166.418  0.011373797    234.49918    32.759844    64238.679 
    5740   -13168.551    2.1270679   -13166.424  0.011373797    253.16482    35.367458    64238.679 
    5750   -13168.959    2.5346407   -13166.424  0.011373797    301.67436    42.144305    64238.679 
    5760   -13168.734    2.3130065   -13166.421  0.011373797    275.29533     38.45912    64238.679 
    5770   -13168.897     2.480703   -13166.417  0.011373797    295.25467    41.247465    64238.679 
    5780   -13169.015    2.6011959   -13166.413  0.011373797    309.59581    43.250941    64238.679 
    5790   -13168.543    2.1373992   -13166.406  0.011373797    254.39445     35.53924    64238.679 
    5800    -13168.74    2.3409354   -13166.399  0.011373797    278.61945    38.923504    64238.679 
    5810   -13168.887    2.4963523    -13166.39  0.011373797    297.11726    41.507672    64238.679 
    5820   -13168.748    2.3682343    -13166.38  0.011373797    281.86858    39.377411    64238.679 
    5830   -13168.893    2.5261227   -13166.366  0.011373797    300.66055    42.002673    64238.679 
    5840   -13168.816    2.4597276   -13166.357  0.011373797    292.75816      40.8987    64238.679 
    5850   -13168.761    2.4139283   -13166.347  0.011373797    287.30711    40.137181    64238.679 
    5860   -13169.053     2.715463   -13166.337  0.011373797    323.19594    45.150898    64238.679 
    5870   -13168.917      2.58718    -13166.33  0.011373797    307.92763    43.017894    64238.679 
    5880   -13169.068    2.7414007   -13166.327  0.011373797    326.28306    45.582173    64238.679 
    5890   -13169.215    2.8914186   -13166.323  0.011373797    344.13828    48.076569    64238.679 
    5900   -13168.775    2.4464092   -13166.329  0.011373797      291.173     40.67725    64238.679 
    5910   -13168.886    2.5481848   -13166.338  0.011373797     303.2864    42.369508    64238.679 
    5920   -13168.981    2.6396667   -13166.342  0.011373797    314.17463    43.890608    64238.679 
    5930   -13168.728    2.3795316   -13166.348  0.011373797     283.2132    39.565256    64238.679 
    5940   -13168.929    2.5780781   -13166.351  0.011373797    306.84431    42.866553    64238.679 
    5950   -13169.142    2.7829855   -13166.359  0.011373797     331.2325    46.273616    64238.679 
    5960   -13168.893    2.5274974   -13166.365  0.011373797    300.82417    42.025531    64238.679 
    5970   -13169.062    2.6824412    -13166.38  0.011373797    319.26566    44.601833    64238.679 
    5980   -13169.285    2.8899447   -13166.395  0.011373797    343.96285    48.052062    64238.679 
    5990    -13169.07     2.653838   -13166.416  0.011373797    315.86129    44.126238    64238.679 
    6000   -13169.088    2.6490188   -13166.439  0.011373797    315.28771    44.046108    64238.679 
    6010   -13169.081    2.6097303   -13166.471  0.011373797    310.61157    43.392844    64238.679 
    6020   -13168.916    2.4182342   -13166.498  0.011373797     287.8196    40.208777    64238.679 
    6030   -13169.004    2.4809611   -13166.523  0.011373797    295.28538    41.251756    64238.679 
    6040   -13169.158    2.6059786   -13166.552  0.011373797    310.16504    43.330464    64238.679 
    6050     -13169.2    2.6137404   -13166.586  0.011373797    311.08885    43.459522    64238.679 
    6060   -13169.209    2.5896659   -13166.619  0.011373797    308.22349    43.059227    64238.679 
    6070   -13169.165    2.5077012   -13166.657  0.011373797    298.46801    41.696374    64238.679 
    6080   -13169.175    2.4737359   -13166.701  0.011373797    294.42545    41.131622    64238.679 
    6090   -13169.007    2.2710898   -13166.736  0.011373797    270.30639    37.762158    64238.679 
    6100   -13168.951     2.174441   -13166.777  0.011373797    258.80319    36.155146    64238.679 
    6110   -13169.154    2.3328616   -13166.821  0.011373797     277.6585    38.789258    64238.679 
    6120   -13169.181    2.3223991   -13166.858  0.011373797    276.41325    38.615295    64238.679 
    6130   -13169.207    2.3015507   -13166.905  0.011373797    273.93187    38.268642    64238.679 
    6140   -13169.347    2.3874185   -13166.959  0.011373797     284.1519    39.696394    64238.679 
    6150   -13169.309    2.2845183   -13167.024  0.011373797    271.90465    37.985437    64238.679 
    6160   -13169.249    2.1614441   -13167.088  0.011373797     257.2563    35.939043    64238.679 
    6170   -13169.176    2.0221378   -13167.154  0.011373797    240.67598     33.62275    64238.679 
    6180   -13169.066     1.843214   -13167.223  0.011373797    219.38036    30.647725    64238.679 
    6190   -13169.164    1.8750355   -13167.289  0.011373797    223.16778    31.176832    64238.679 
    6200   -13169.118    1.7790726   -13167.339  0.011373797    211.74622    29.581226    64238.679 
    6210   -13168.993    1.6219928   -13167.371  0.011373797     193.0505    26.969409    64238.679 
    6220   -13169.215    1.8092746   -13167.406  0.011373797    215.34088    30.083404    64238.679 
    6230   -13169.481    2.0465161   -13167.435  0.011373797     243.5775    34.028097    64238.679 
    6240   -13169.424    1.9770252   -13167.447  0.011373797    235.30665    32.872648    64238.679 
    6250   -13169.321    1.8686211   -13167.453  0.011373797    222.40434    31.070179    64238.679 
    6260   -13169.477    2.0209351   -13167.456  0.011373797    240.53284    33.602754    64238.679 
    6270   -13169.516     2.069714   -13167.446  0.011373797    246.33853    34.413816    64238.679 
    6280   -13169.321    1.8920973   -13167.429  0.011373797    225.19848    31.460524    64238.679 
    6290   -13169.311    1.9091393   -13167.401  0.011373797    227.22683    31.743887    64238.679 
    6300   -13169.557    2.1897383   -13167.367  0.011373797    260.62389      36.4095    64238.679 
    6310   -13169.363    2.0576033   -13167.306  0.011373797    244.89711    34.212448    64238.679 
    6320   -13169.164    1.9276553   -13167.236  0.011373797    229.43062    32.051759    64238.679 
    6330   -13169.334    2.1696108   -13167.164  0.011373797    258.22831    36.074834    64238.679 
    6340   -13169.115    2.0271012   -13167.088  0.011373797    241.26672    33.705278    64238.679 
    6350     -13168.9    1.8959788   -13167.004  0.011373797    225.66047    31.525064    64238.679 
    6360   -13169.032    2.1063096   -13166.926  0.011373797    250.69416    35.022304    64238.679 
    6370   -13169.171    2.3138271   -13166.857  0.011373797    275.39301    38.472766    64238.679 
    6380   -13169.256    2.4583216   -13166.798  0.011373797    292.59082    40.875323    64238.679 
    6390   -13169.201    2.4504928   -13166.751  0.011373797    291.65904    40.745151    64238.679 
    6400   -13169.262    2.5445754   -13166.717  0.011373797     302.8568    42.309492    64238.679 
    6410   -13169.058    2.3731373   -13166.684  0.011373797    282.45214    39.458935    64238.679 
    6420   -13168.669    2.0104686   -13166.658  0.011373797    239.28711    33.428724    64238.679 
    6430   -13168.899    2.2615587   -13166.638  0.011373797      269.172    37.603682    64238.679 
    6440   -13169.062    2.4557673   -13166.607  0.011373797    292.28681    40.832851    64238.679 
    6450   -13168.965    2.3921052   -13166.573  0.011373797    284.70971    39.774321    64238.679 
    6460   -13169.278     2.735943   -13166.542  0.011373797    325.63348    45.491425    64238.679 
    6470   -13169.243    2.7358399   -13166.507  0.011373797    325.62121    45.489711    64238.679 
    6480   -13168.979    2.4982827   -13166.481  0.011373797    297.34702     41.53977    64238.679 
    6490   -13169.188    2.7239492   -13166.464  0.011373797    324.20597       45.292    64238.679 
    6500   -13169.226     2.780074   -13166.446  0.011373797    330.88598    46.225206    64238.679 
    6510   -13168.969    2.5360529   -13166.433  0.011373797    301.84245    42.167787    64238.679 
    6520   -13169.151    2.7345271   -13166.417  0.011373797    325.46496    45.467883    64238.679 
    6530   -13169.024     2.619305   -13166.405  0.011373797    311.75115    43.552046    64238.679 
    6540   -13168.854    2.4589719   -13166.395  0.011373797    292.66823    40.886136    64238.679 
    6550   -13168.875    2.4862735   -13166.389  0.011373797    295.91767    41.340087    64238.679 
    6560   -13168.764    2.3837325    -13166.38  0.011373797    283.71319    39.635105    64238.679 
    6570   -13168.761    2.3952595   -13166.365  0.011373797    285.08513    39.826767    64238.679 
    6580   -13168.847      2.49738   -13166.349  0.011373797    297.23957    41.524759    64238.679 
    6590   -13168.936    2.6003668   -13166.335  0.011373797    309.49712    43.237155    64238.679 
    6600    -13169.04    2.7226136   -13166.317  0.011373797    324.04701    45.269793    64238.679 
    6610   -13168.701    2.4031372   -13166.298  0.011373797    286.02274    39.957753    64238.679 
    6620   -13168.518    2.2379541    -13166.28  0.011373797    266.36255    37.211199    64238.679 
    6630   -13168.834    2.5704732   -13166.264  0.011373797    305.93917    42.740104    64238.679 
    6640   -13168.911    2.6684278   -13166.243  0.011373797    317.59778    44.368827    64238.679 
    6650   -13168.584    2.3643616    -13166.22  0.011373797    281.40766    39.313019    64238.679 
    6660   -13168.527    2.3392986   -13166.188  0.011373797    278.42464    38.896288    64238.679 
    6670   -13168.665    2.5031242   -13166.162  0.011373797    297.92326    41.620271    64238.679 
    6680   -13168.779    2.6491192    -13166.13  0.011373797    315.29966    44.047777    64238.679 
    6690    -13168.69    2.5927453   -13166.098  0.011373797       308.59    43.110429    64238.679 
    6700   -13168.723    2.6594407   -13166.063  0.011373797    316.52814    44.219397    64238.679 
    6710    -13168.65    2.6190757   -13166.031  0.011373797    311.72387    43.548235    64238.679 
    6720   -13168.281    2.2762352   -13166.005  0.011373797     270.9188    37.847712    64238.679 
    6730   -13168.251     2.279822   -13165.971  0.011373797     271.3457    37.907351    64238.679 
    6740   -13168.463    2.5281774   -13165.935  0.011373797     300.9051    42.036838    64238.679 
    6750   -13168.561    2.6689065   -13165.892  0.011373797    317.65476    44.376787    64238.679 
    6760   -13168.527    2.6836279   -13165.844  0.011373797    319.40691    44.621565    64238.679 
    6770   -13168.527    2.7238847   -13165.803  0.011373797    324.19829    45.290927    64238.679 
    6780    -13168.39    2.6248942   -13165.765  0.011373797    312.41639    43.644981    64238.679 
    6790   -13168.175    2.4503451   -13165.724  0.011373797    291.64146    40.742695    64238.679 
    6800   -13167.991    2.3065607   -13165.685  0.011373797    274.52816    38.351945    64238.679 
    6810   -13168.223    2.5767533   -13165.646  0.011373797    306.68663    42.844525    64238.679 
    6820   -13168.376    2.7776785   -13165.598  0.011373797    330.60087    46.185376    64238.679 
    6830   -13168.215    2.6601543   -13165.555  0.011373797    316.61307    44.231262    64238.679 
    6840   -13168.458    2.9411976   -13165.517  0.011373797    350.06299     48.90426    64238.679 
    6850   -13168.517    3.0317987   -13165.485  0.011373797    360.84639    50.410715    64238.679 
    6860   -13168.236    2.7821869   -13165.454  0.011373797    331.13746    46.260338    64238.679 
    6870   -13168.328    2.8946325   -13165.433  0.011373797    344.52079    48.130007    64238.679 
    6880   -13168.498    3.0672269   -13165.431  0.011373797    365.06308    50.999792    64238.679 
    6890   -13168.519    3.0813373   -13165.437  0.011373797    366.74251     51.23441    64238.679 
    6900   -13168.365    2.9157922   -13165.449  0.011373797    347.03923    48.481836    64238.679 
    6910   -13168.272    2.7962636   -13165.476  0.011373797    332.81288    46.494396    64238.679 
    6920   -13168.397     2.877404    -13165.52  0.011373797    342.47025    47.843544    64238.679 
    6930   -13168.369    2.7996328    -13165.57  0.011373797    333.21388    46.550417    64238.679 
    6940   -13168.234    2.6098188   -13165.625  0.011373797    310.62211    43.394317    64238.679 
    6950   -13168.301    2.6091263   -13165.692  0.011373797    310.53969    43.382803    64238.679 
    6960   -13168.426    2.6512738   -13165.775  0.011373797     315.5561    44.083603    64238.679 
    6970   -13168.696    2.8229045   -13165.873  0.011373797    335.98369    46.937363    64238.679 
    6980   -13168.658    2.6867751   -13165.971  0.011373797    319.78149    44.673895    64238.679 
    6990   -13168.534    2.4670363   -13166.067  0.011373797    293.62805    41.020224    64238.679 
    7000    -13168.62    2.4611892   -13166.159  0.011373797    292.93213    40.923004    64238.679 
    7010   -13168.677    2.4401988   -13166.237  0.011373797    290.43384    40.573988    64238.679 
    7020    -13168.62     2.330641   -13166.289  0.011373797    277.39421    38.752335    64238.679 
    7030   -13168.401     2.071569    -13166.33  0.011373797    246.55931    34.444659    64238.679 
    7040   -13168.628    2.2728668   -13166.355  0.011373797    270.51789    37.791704    64238.679 
    7050   -13168.901     2.527886   -13166.373  0.011373797    300.87042    42.031993    64238.679 
    7060   -13168.839    2.4504066   -13166.388  0.011373797    291.64878    40.743717    64238.679 
    7070   -13168.818    2.4235148   -13166.395  0.011373797    288.44809    40.296578    64238.679 
    7080    -13168.72     2.316968   -13166.403  0.011373797    275.76684     38.52499    64238.679 
    7090   -13168.555     2.149852   -13166.405  0.011373797     255.8766    35.746298    64238.679 
    7100   -13168.771    2.3672396   -13166.403  0.011373797    281.75019    39.360872    64238.679 
    7110   -13168.868    2.4713876   -13166.397  0.011373797    294.14595    41.092576    64238.679 
    7120   -13168.774    2.3864552   -13166.388  0.011373797    284.03724    39.680376    64238.679 
    7130   -13168.644    2.2663593   -13166.377  0.011373797    269.74336    37.683502    64238.679 
    7140   -13168.582    2.2180022   -13166.364  0.011373797    263.98788    36.879454    64238.679 
    7150   -13168.779    2.4266514   -13166.353  0.011373797    288.82142    40.348732    64238.679 
    7160    -13168.77    2.4398438    -13166.33  0.011373797    290.39159    40.568086    64238.679 
    7170    -13168.63    2.3251638   -13166.305  0.011373797    276.74231    38.661264    64238.679 
    7180   -13168.725    2.4398657   -13166.285  0.011373797    290.39419     40.56845    64238.679 
    7190   -13168.653    2.4004857   -13166.253  0.011373797    285.70717    39.913667    64238.679 
    7200   -13168.786    2.5617714   -13166.224  0.011373797    304.90348    42.595417    64238.679 
    7210   -13168.979    2.7864444   -13166.192  0.011373797    331.64418    46.331128    64238.679 
    7220   -13168.898    2.7330241   -13166.165  0.011373797    325.28607    45.442892    64238.679 
    7230   -13168.656    2.5126803   -13166.144  0.011373797    299.06062    41.779162    64238.679 
    7240    -13168.62    2.5010224   -13166.119  0.011373797     297.6731    41.585323    64238.679 
    7250   -13168.656    2.5583208   -13166.098  0.011373797    304.49279    42.538043    64238.679 
    7260   -13168.636    2.5553412    -13166.08  0.011373797    304.13815      42.4885    64238.679 
    7270   -13168.489    2.4362436   -13166.053  0.011373797    289.96309    40.508225    64238.679 
    7280   -13168.239    2.2162847   -13166.023  0.011373797    263.78346    36.850896    64238.679 
    7290   -13168.499    2.5073942   -13165.992  0.011373797    298.43147    41.691268    64238.679 
    7300   -13168.641    2.6839785   -13165.957  0.011373797    319.44863    44.627394    64238.679 
    7310   -13168.527     2.606324   -13165.921  0.011373797    310.20615    43.336207    64238.679 
    7320   -13168.579    2.7035917   -13165.876  0.011373797    321.78301     44.95351    64238.679 
    7330   -13168.437    2.5962442    -13165.84  0.011373797    309.00645    43.168608    64238.679 
    7340   -13168.338    2.5434958   -13165.794  0.011373797     302.7283    42.291541    64238.679 
    7350   -13168.548    2.7953772   -13165.752  0.011373797    332.70737    46.479657    64238.679 
    7360   -13168.595    2.8777002   -13165.717  0.011373797    342.50551    47.848469    64238.679 
    7370   -13168.652    2.9643439   -13165.688  0.011373797    352.81788    49.289122    64238.679 
    7380   -13168.248     2.591976   -13165.656  0.011373797    308.49845    43.097638    64238.679 
    7390   -13167.931    2.3052882   -13165.625  0.011373797    274.37671    38.330787    64238.679 
    7400   -13168.504    2.9011576   -13165.603  0.011373797    345.29741    48.238502    64238.679 
    7410   -13168.515    2.9403991   -13165.574  0.011373797    349.96796    48.890983    64238.679 
    7420   -13168.118    2.5767492   -13165.541  0.011373797    306.68614    42.844457    64238.679 
    7430   -13168.423    2.9077152   -13165.515  0.011373797    346.07791    48.347539    64238.679 
    7440   -13168.122    2.6374369   -13165.485  0.011373797    313.90922    43.853531    64238.679 
    7450   -13168.187    2.7339071   -13165.453  0.011373797    325.39116    45.457573    64238.679 
    7460   -13168.502    3.0756028   -13165.426  0.011373797    366.05998    51.139061    64238.679 
    7470   -13168.498     3.091337   -13165.407  0.011373797    367.93267    51.400677    64238.679 
    7480   -13168.354    2.9608538   -13165.394  0.011373797    352.40249     49.23109    64238.679 
    7490   -13168.008    2.6268504   -13165.381  0.011373797    312.64921    43.677506    64238.679 
    7500   -13167.945     2.559006   -13165.386  0.011373797    304.57434    42.549435    64238.679 
    7510   -13168.399    2.9988377   -13165.401  0.011373797    356.92336    49.862662    64238.679 
    7520     -13168.4    2.9832549   -13165.417  0.011373797    355.06868    49.603561    64238.679 
    7530   -13168.021    2.5831949   -13165.438  0.011373797    307.45332    42.951633    64238.679 
    7540   -13168.235    2.7619068   -13165.473  0.011373797    328.72371    45.923134    64238.679 
    7550   -13168.455    2.9349836    -13165.52  0.011373797    349.32341    48.800939    64238.679 
    7560   -13168.454    2.8739998    -13165.58  0.011373797    342.06508    47.786941    64238.679 
    7570   -13168.502    2.8546576   -13165.647  0.011373797    339.76296    47.465331    64238.679 
    7580   -13168.227     2.505459   -13165.721  0.011373797    298.20115    41.659092    64238.679 
    7590    -13168.11    2.3226248   -13165.788  0.011373797    276.44011    38.619046    64238.679 
    7600   -13168.363    2.5091202   -13165.854  0.011373797     298.6369    41.719968    64238.679 
    7610   -13168.522    2.5977298   -13165.925  0.011373797    309.18326    43.193308    64238.679 
    7620   -13168.448    2.4611586   -13165.987  0.011373797    292.92848    40.922494    64238.679 
    7630   -13168.426    2.3842797   -13166.042  0.011373797    283.77832    39.644204    64238.679 
    7640   -13168.356    2.2668711    -13166.09  0.011373797    269.80427    37.692011    64238.679 
    7650   -13168.433    2.3050021   -13166.128  0.011373797    274.34265    38.326028    64238.679 
    7660     -13168.6    2.4352635   -13166.164  0.011373797    289.84644    40.491929    64238.679 
    7670   -13168.599    2.4039788   -13166.195  0.011373797    286.12291    39.971747    64238.679 
    7680   -13168.579    2.3594053    -13166.22  0.011373797    280.81774    39.230608    64238.679 
    7690   -13168.729    2.4918156   -13166.237  0.011373797     296.5773    41.432239    64238.679 
    7700   -13168.692    2.4320584    -13166.26  0.011373797    289.46496    40.438636    64238.679 
    7710   -13168.598    2.3223265   -13166.275  0.011373797    276.40461    38.614087    64238.679 
    7720   -13168.622    2.3326931   -13166.289  0.011373797    277.63844    38.786455    64238.679 
    7730     -13168.5    2.2025293   -13166.297  0.011373797    262.14628    36.622179    64238.679 
    7740   -13168.414    2.1198308   -13166.294  0.011373797    252.30345    35.247124    64238.679 
[...]
   48200   -13168.564    2.4227777   -13166.142  0.011373797    288.36036    40.284322    64238.679 
   48210   -13168.637    2.4952309   -13166.141  0.011373797    296.98378    41.489025    64238.679 
   48220   -13168.782    2.6360892   -13166.146  0.011373797    313.74882    43.831123    64238.679 
   48230   -13168.732    2.5840878   -13166.148  0.011373797    307.55959    42.966479    64238.679 
   48240   -13168.829    2.6745773   -13166.155  0.011373797     318.3297    44.471077    64238.679 
   48250   -13168.714    2.5549438   -13166.159  0.011373797    304.09085    42.481892    64238.679 
   48260   -13168.622    2.4579562   -13166.164  0.011373797    292.54733    40.869247    64238.679 
   48270   -13168.874    2.7002393   -13166.174  0.011373797    321.38401    44.897768    64238.679 
   48280    -13168.92    2.7307865   -13166.189  0.011373797    325.01975    45.405686    64238.679 
   48290   -13168.697    2.4921212   -13166.205  0.011373797    296.61367    41.437319    64238.679 
   48300   -13168.513    2.2974902   -13166.215  0.011373797    273.44858    38.201126    64238.679 
   48310   -13168.327    2.1000585   -13166.227  0.011373797    249.95015    34.918364    64238.679 
   48320   -13168.577    2.3456995   -13166.231  0.011373797    279.18648    39.002719    64238.679 
   48330   -13168.913    2.6765904   -13166.236  0.011373797     318.5693     44.50455    64238.679 
   48340   -13168.973    2.7259054   -13166.247  0.011373797     324.4388    45.324527    64238.679 
   48350   -13168.724    2.4705078   -13166.253  0.011373797    294.04124    41.077947    64238.679 
   48360   -13168.502     2.242171    -13166.26  0.011373797    266.86445    37.281315    64238.679 
   48370   -13168.527    2.2626188   -13166.265  0.011373797    269.29816    37.621307    64238.679 
   48380   -13168.656    2.3854628   -13166.271  0.011373797    283.91913    39.663876    64238.679 
   48390   -13168.685    2.4121016   -13166.272  0.011373797    287.08969    40.106807    64238.679 
   48400   -13168.722    2.4561723   -13166.266  0.011373797    292.33501    40.839585    64238.679 
   48410   -13168.639    2.3805513   -13166.258  0.011373797    283.33456     39.58221    64238.679 
   48420   -13168.628     2.379865   -13166.248  0.011373797    283.25287    39.570799    64238.679 
   48430   -13168.904     2.663579   -13166.241  0.011373797    317.02068    44.288205    64238.679 
   48440   -13169.034     2.806488   -13166.228  0.011373797    334.02978    46.664399    64238.679 
   48450   -13168.621    2.4030927   -13166.218  0.011373797    286.01745    39.957014    64238.679 
   48460   -13168.567     2.367456     -13166.2  0.011373797    281.77594     39.36447    64238.679 
   48470   -13168.662    2.4743487   -13166.188  0.011373797    294.49838     41.14181    64238.679 
   48480   -13168.809    2.6343026   -13166.174  0.011373797    313.53618    43.801417    64238.679 
   48490   -13168.914    2.7585858   -13166.155  0.011373797    328.32843    45.867914    64238.679 
   48500   -13168.688    2.5496403   -13166.139  0.011373797    303.45963    42.393709    64238.679 
   48510   -13168.535     2.419384   -13166.116  0.011373797    287.95645    40.227895    64238.679 
   48520   -13168.675    2.5742686   -13166.101  0.011373797     306.3909    42.803211    64238.679 
   48530   -13168.611    2.5341024   -13166.077  0.011373797     301.6103    42.135355    64238.679 
   48540   -13168.792    2.7344154   -13166.058  0.011373797    325.45167    45.466026    64238.679 
   48550    -13168.82    2.7841064   -13166.036  0.011373797    331.36591    46.292254    64238.679 
   48560   -13168.407    2.3990755   -13166.008  0.011373797    285.53931    39.890217    64238.679 
   48570   -13168.481    2.4995144   -13165.982  0.011373797    297.49362    41.560249    64238.679 
   48580    -13168.67     2.712265   -13165.958  0.011373797    322.81531    45.097723    64238.679 
   48590   -13168.871    2.9385087   -13165.933  0.011373797    349.74296    48.859552    64238.679 
   48600   -13168.889    2.9763496   -13165.912  0.011373797    354.24681    49.488745    64238.679 
   48610   -13168.446    2.5495411   -13165.897  0.011373797    303.44782    42.392059    64238.679 
   48620   -13168.451     2.567319   -13165.884  0.011373797    305.56376    42.687658    64238.679 
   48630   -13168.699    2.8237174   -13165.876  0.011373797    336.08044    46.950879    64238.679 
   48640   -13168.554    2.6792891   -13165.874  0.011373797     318.8905    44.549422    64238.679 
   48650   -13168.683    2.8113868   -13165.871  0.011373797    334.61285    46.745854    64238.679 
   48660   -13168.766    2.8902256   -13165.875  0.011373797    343.99628    48.056732    64238.679 
   48670   -13168.477    2.5929814   -13165.884  0.011373797     308.6181    43.114355    64238.679 
   48680   -13168.959    3.0504622   -13165.909  0.011373797    363.06774     50.72104    64238.679 
   48690     -13169.1    3.1577164   -13165.942  0.011373797    375.83319     52.50439    64238.679 
   48700   -13168.657    2.6776197    -13165.98  0.011373797    318.69181    44.521664    64238.679 
   48710   -13168.856    2.8154623   -13166.041  0.011373797    335.09791    46.813618    64238.679 
   48720   -13168.803    2.7023798     -13166.1  0.011373797    321.63877    44.933359    64238.679 
   48730   -13168.554    2.3929193   -13166.161  0.011373797    284.80661    39.787857    64238.679 
   48740   -13169.076    2.8417235   -13166.234  0.011373797    338.22354    47.250273    64238.679 
   48750   -13169.268    2.9531786   -13166.314  0.011373797    351.48898    49.103472    64238.679 
   48760    -13169.16    2.7638442   -13166.396  0.011373797    328.95429    45.955347    64238.679 
   48770   -13169.196    2.7156897   -13166.481  0.011373797    323.22292    45.154667    64238.679 
   48780   -13169.027    2.4737844   -13166.554  0.011373797    294.43122    41.132428    64238.679 
   48790   -13169.097    2.4762242    -13166.62  0.011373797    294.72161    41.172996    64238.679 
   48800   -13169.313    2.6335931    -13166.68  0.011373797    313.45173    43.789619    64238.679 
   48810    -13169.13     2.407178   -13166.723  0.011373797    286.50369    40.024942    64238.679 
   48820   -13168.997    2.2353228   -13166.762  0.011373797    266.04938    37.167448    64238.679 
   48830   -13169.143    2.3522103    -13166.79  0.011373797    279.96139    39.110975    64238.679 
   48840   -13169.311    2.4904851    -13166.82  0.011373797    296.41894    41.410116    64238.679 
   48850   -13169.351    2.5106822    -13166.84  0.011373797    298.82281    41.745939    64238.679 
   48860    -13169.25    2.3925005   -13166.857  0.011373797    284.75675    39.780893    64238.679 
   48870   -13169.292     2.418022   -13166.874  0.011373797    287.79434    40.205248    64238.679 
   48880   -13169.259    2.3733007   -13166.885  0.011373797    282.47159    39.461652    64238.679 
   48890   -13168.942    2.0497493   -13166.893  0.011373797    243.96232    34.081857    64238.679 
   48900   -13169.157    2.2608876   -13166.896  0.011373797    269.09212    37.592522    64238.679 
   48910   -13169.057    2.1667129    -13166.89  0.011373797    257.88339    36.026648    64238.679 
   48920    -13168.83    1.9524781   -13166.878  0.011373797    232.38504    32.464495    64238.679 
   48930   -13169.193    2.3349041   -13166.858  0.011373797    277.90161     38.82322    64238.679 
   48940   -13169.268    2.4348228   -13166.833  0.011373797    289.79399    40.484601    64238.679 
   48950    -13169.09      2.28684   -13166.803  0.011373797    272.18098    38.024041    64238.679 
   48960   -13169.261    2.4877847   -13166.773  0.011373797    296.09753    41.365215    64238.679 
   48970   -13169.266    2.5208546   -13166.745  0.011373797    300.03353    41.915079    64238.679 
   48980    -13168.94    2.2330997   -13166.707  0.011373797    265.78478    37.130483    64238.679 
   48990   -13168.933    2.2627647    -13166.67  0.011373797    269.31553    37.623733    64238.679 
   49000   -13169.144    2.5105442   -13166.633  0.011373797    298.80639    41.743646    64238.679 
   49010   -13169.279    2.6900169   -13166.589  0.011373797    320.16733    44.727797    64238.679 
   49020    -13168.95     2.414136   -13166.536  0.011373797    287.33183    40.140635    64238.679 
   49030    -13168.79    2.2942681   -13166.496  0.011373797    273.06509    38.147552    64238.679 
   49040   -13169.052    2.6017905    -13166.45  0.011373797    309.66657    43.260827    64238.679 
   49050   -13168.994    2.5908883   -13166.403  0.011373797    308.36899    43.079553    64238.679 
   49060   -13168.844    2.4789913   -13166.365  0.011373797    295.05095    41.219005    64238.679 
   49070   -13169.095    2.7674257   -13166.327  0.011373797    329.38057    46.014898    64238.679 
   49080   -13168.932    2.6395933   -13166.292  0.011373797    314.16589    43.889387    64238.679 
   49090   -13168.658    2.4022621   -13166.256  0.011373797     285.9186    39.943204    64238.679 
   49100   -13168.944    2.7178217   -13166.227  0.011373797    323.47667    45.190116    64238.679 
   49110   -13168.933    2.7296692   -13166.203  0.011373797    324.88677    45.387109    64238.679 
   49120   -13168.881    2.6968908   -13166.184  0.011373797    320.98547    44.842092    64238.679 
   49130   -13168.974    2.8040132    -13166.17  0.011373797    333.73523     46.62325    64238.679 
   49140   -13168.721    2.5644456   -13166.156  0.011373797    305.22177    42.639882    64238.679 
   49150   -13168.838    2.6878774    -13166.15  0.011373797    319.91269    44.692223    64238.679 
   49160   -13169.311    3.1593976   -13166.151  0.011373797    376.03328    52.532344    64238.679 
   49170   -13169.126    2.9616215   -13166.164  0.011373797    352.49386    49.243855    64238.679 
   49180   -13168.994    2.8147858   -13166.179  0.011373797     335.0174     46.80237    64238.679 
   49190   -13168.811    2.6081825   -13166.202  0.011373797    310.42735    43.367109    64238.679 
   49200   -13168.405    2.1853297    -13166.22  0.011373797    260.09918    36.336197    64238.679 
   49210   -13168.737    2.5007605   -13166.237  0.011373797    297.64192    41.580967    64238.679 
   49220   -13168.872    2.6215254   -13166.251  0.011373797    312.01544    43.588967    64238.679 
   49230    -13168.54    2.2847313   -13166.255  0.011373797    271.93001     37.98898    64238.679 
   49240   -13168.652    2.3887226   -13166.264  0.011373797    284.30711    39.718077    64238.679 
   49250   -13168.682    2.4151613   -13166.266  0.011373797    287.45386    40.157682    64238.679 
   49260   -13168.754    2.4849229   -13166.269  0.011373797    295.75693    41.317632    64238.679 
   49270   -13168.963    2.6914022   -13166.271  0.011373797    320.33221     44.75083    64238.679 
   49280   -13168.908    2.6329225   -13166.275  0.011373797    313.37192     43.77847    64238.679 
   49290   -13168.727    2.4525171   -13166.274  0.011373797    291.89997     40.77881    64238.679 
   49300   -13168.786    2.5092197   -13166.277  0.011373797    298.64875    41.721622    64238.679 
   49310   -13168.763    2.4849261   -13166.278  0.011373797    295.75731    41.317685    64238.679 
   49320   -13168.704     2.427134   -13166.277  0.011373797    288.87886    40.356757    64238.679 
   49330   -13168.955    2.6771233   -13166.278  0.011373797    318.63273    44.513411    64238.679 
   49340   -13168.854    2.5791513   -13166.275  0.011373797    306.97205    42.884398    64238.679 
   49350   -13168.724     2.450301   -13166.273  0.011373797    291.63621    40.741961    64238.679 
   49360    -13169.03    2.7511938   -13166.279  0.011373797    327.44864    45.745005    64238.679 
   49370   -13169.144    2.8566818   -13166.287  0.011373797    340.00388    47.498989    64238.679 
   49380   -13168.839     2.545548   -13166.293  0.011373797    302.97256    42.325664    64238.679 
   49390   -13168.918    2.6163812   -13166.302  0.011373797    311.40317    43.503431    64238.679 
   49400   -13168.978    2.6611354   -13166.316  0.011373797    316.72983    44.247574    64238.679 
   49410   -13168.698    2.3742433   -13166.324  0.011373797    282.58378    39.477325    64238.679 
   49420   -13168.773    2.4408497   -13166.333  0.011373797    290.51131    40.584811    64238.679 
   49430    -13168.75    2.4127807   -13166.337  0.011373797    287.17052    40.118099    64238.679 
   49440   -13168.612    2.2739055   -13166.338  0.011373797    270.64151    37.808975    64238.679 
   49450   -13168.755    2.4174129   -13166.337  0.011373797    287.72184    40.195119    64238.679 
   49460   -13168.886    2.5495983   -13166.336  0.011373797    303.45463     42.39301    64238.679 
   49470   -13168.884    2.5467654   -13166.337  0.011373797    303.11746    42.345907    64238.679 
   49480   -13169.134    2.7933034    -13166.34  0.011373797    332.46055    46.445176    64238.679 
   49490   -13168.769    2.4272638   -13166.341  0.011373797    288.89431    40.358915    64238.679 
   49500   -13168.621    2.2807335    -13166.34  0.011373797    271.45419    37.922507    64238.679 
   49510   -13169.116    2.7656711   -13166.351  0.011373797    329.17174    45.985724    64238.679 
   49520   -13168.847    2.4931284   -13166.354  0.011373797    296.73355    41.454067    64238.679 
   49530   -13168.523    2.1690884   -13166.354  0.011373797    258.16613    36.066148    64238.679 
   49540   -13168.805    2.4518247   -13166.353  0.011373797    291.81755    40.767296    64238.679 
   49550   -13168.571    2.2279127   -13166.343  0.011373797    265.16742    37.044237    64238.679 
   49560   -13168.486    2.1539174   -13166.332  0.011373797    256.36047    35.813894    64238.679 
   49570    -13168.94    2.6255506   -13166.315  0.011373797    312.49452    43.655894    64238.679 
   49580   -13168.782    2.4932475   -13166.289  0.011373797    296.74773    41.456047    64238.679 
   49590   -13168.562    2.3003516   -13166.262  0.011373797    273.78915    38.248704    64238.679 
   49600   -13168.645    2.4253294   -13166.219  0.011373797    288.66407     40.32675    64238.679 
   49610   -13168.983    2.8084265   -13166.175  0.011373797    334.26051    46.696633    64238.679 
   49620   -13169.051    2.9273158   -13166.123  0.011373797    348.41078    48.673444    64238.679 
   49630   -13168.894    2.8323044   -13166.061  0.011373797    337.10247    47.093658    64238.679 
   49640   -13168.942    2.9350199   -13166.007  0.011373797    349.32772    48.801542    64238.679 
   49650   -13168.766    2.8104569   -13165.955  0.011373797    334.50217    46.730392    64238.679 
   49660   -13168.388    2.4808043   -13165.907  0.011373797    295.26673     41.24915    64238.679 
   49670   -13168.264     2.405993   -13165.858  0.011373797    286.36265    40.005238    64238.679 
   49680   -13168.553    2.7491565   -13165.804  0.011373797    327.20616    45.711131    64238.679 
   49690   -13168.519      2.77837    -13165.74  0.011373797    330.68316    46.196873    64238.679 
   49700   -13168.517    2.8362685    -13165.68  0.011373797    337.57427     47.15957    64238.679 
   49710   -13168.787      3.16466   -13165.622  0.011373797    376.65962    52.619844    64238.679 
   49720   -13168.542    2.9652598   -13165.577  0.011373797     352.9269    49.304351    64238.679 
   49730   -13168.438    2.8975001   -13165.541  0.011373797     344.8621    48.177689    64238.679 
   49740   -13168.668    3.1550214   -13165.513  0.011373797    375.51243    52.459579    64238.679 
   49750   -13168.382    2.8807413   -13165.501  0.011373797    342.86745    47.899034    64238.679 
   49760   -13168.443    2.9456527   -13165.498  0.011373797    350.59324    48.978336    64238.679 
   49770   -13168.586    3.0870626   -13165.499  0.011373797    367.42394    51.329607    64238.679 
   49780   -13168.271    2.7500545   -13165.521  0.011373797    327.31304    45.726062    64238.679 
   49790   -13168.441    2.8895333   -13165.552  0.011373797    343.91388    48.045221    64238.679 
   49800   -13168.521    2.9362018   -13165.584  0.011373797    349.46839    48.821194    64238.679 
   49810   -13168.162    2.5352165   -13165.627  0.011373797     301.7429     42.15388    64238.679 
   49820   -13168.312    2.6305919   -13165.681  0.011373797    313.09453    43.739718    64238.679 
   49830   -13168.541    2.7968354   -13165.744  0.011373797    332.88093    46.503904    64238.679 
   49840   -13168.329    2.5219991   -13165.807  0.011373797    300.16975    41.934109    64238.679 
   49850   -13168.247      2.37786   -13165.869  0.011373797    283.01423     39.53746    64238.679 
   49860   -13168.445    2.5031951   -13165.942  0.011373797    297.93169    41.621449    64238.679 
   49870   -13168.437    2.4305694   -13166.006  0.011373797    289.28774    40.413877    64238.679 
   49880    -13168.36    2.2953091   -13166.065  0.011373797    273.18899    38.164861    64238.679 
   49890   -13168.215     2.096591   -13166.118  0.011373797    249.53745    34.860709    64238.679 
   49900   -13168.296    2.1316114   -13166.164  0.011373797     253.7056    35.443005    64238.679 
   49910   -13168.625    2.4258385   -13166.199  0.011373797    288.72466    40.335215    64238.679 
   49920   -13168.493    2.2677383   -13166.225  0.011373797    269.90749    37.706432    64238.679 
   49930   -13168.277    2.0322537   -13166.245  0.011373797    241.87998    33.790951    64238.679 
   49940   -13168.532    2.2705265   -13166.262  0.011373797    270.23934    37.752792    64238.679 
   49950    -13168.58    2.3076852   -13166.272  0.011373797      274.662    38.370642    64238.679 
   49960   -13168.517    2.2465077    -13166.27  0.011373797    267.38061    37.353423    64238.679 
   49970   -13168.566    2.2979877   -13166.268  0.011373797    273.50779    38.209398    64238.679 
   49980   -13168.667     2.402388   -13166.265  0.011373797    285.93357    39.945295    64238.679 
   49990   -13168.818    2.5632164   -13166.255  0.011373797    305.07546    42.619442    64238.679 
   50000   -13168.899    2.6473487   -13166.252  0.011373797    315.08894    44.018339    64238.679 
Loop time of 10536.6 on 1 procs for 50000 steps with 66 atoms

Performance: 0.205 ns/day, 117.073 hours/ns, 4.745 timesteps/s
72.0% CPU use with 1 MPI tasks x 1 OpenMP threads

MPI task timing breakdown:
Section |  min time  |  avg time  |  max time  |%varavg| %total
---------------------------------------------------------------
Pair    | 10526      | 10526      | 10526      |   0.0 | 99.90
Neigh   | 0.072846   | 0.072846   | 0.072846   |   0.0 |  0.00
Comm    | 0.05208    | 0.05208    | 0.05208    |   0.0 |  0.00
Output  | 3.0829     | 3.0829     | 3.0829     |   0.0 |  0.03
Modify  | 7.4031     | 7.4031     | 7.4031     |   0.0 |  0.07
Other   |            | 0.2137     |            |       |  0.00

Nlocal:        66.0000 ave          66 max          66 min
Histogram: 1 0 0 0 0 0 0 0 0 0
Nghost:         0.00000 ave           0 max           0 min
Histogram: 1 0 0 0 0 0 0 0 0 0
Neighs:         0.00000 ave           0 max           0 min
Histogram: 1 0 0 0 0 0 0 0 0 0
FullNghs:      2598.00 ave        2598 max        2598 min
Histogram: 1 0 0 0 0 0 0 0 0 0

Total # of neighbors = 2598
Ave neighs/atom = 39.363636
Neighbor list builds = 518
Dangerous builds = 0
##nvt
#reset_timestep  0
#fix             3 all nvt temp 300.0 300.0 0.5
#timestep        0.0005
##compute         msd all msd
##fix msd all ave/time 1 1 50 c_msd[4] file msddumpfile
##fix pl all plumed plumedfile plumed.dat outfile p.log
#thermo_style    custom step pe ke etotal v_sysdensity temp press vol
#thermo          1
#dump		2 all custom 100 water.dump id type x y z
#
#run             100000
##write_data 	ipb.data
##write_restart 	ipb.restart
Total wall time: 2:55:40
