
     Program PWSCF v.7.2 starts on 27Mar2024 at 22:29: 5 

     This program is part of the open-source Quantum ESPRESSO suite
     for quantum simulation of materials; please cite
         "P. Giannozzi et al., J. Phys.:Condens. Matter 21 395502 (2009);
         "P. Giannozzi et al., J. Phys.:Condens. Matter 29 465901 (2017);
         "P. Giannozzi et al., J. Chem. Phys. 152 154105 (2020);
          URL http://www.quantum-espresso.org", 
     in publications or presentations arising from this work. More details at
     http://www.quantum-espresso.org/quote

     Parallel version (MPI), running on    32 processors

     MPI processes distributed on     1 nodes
     175117 MiB available memory on the printing compute node when the environment starts

     Reading input from pw-wt-397.in
Warning: card &CELL ignored
Warning: card / ignored

     Current dimensions of program PWSCF are:
     Max number of different atomic species (ntypx) = 10
     Max number of k-points (npk) =  40000
     Max angular momentum in pseudopotentials (lmaxx) =  4
     file O.pbe-n-kjpaw_psl.0.1.UPF: wavefunction(s)  2P renormalized

     IMPORTANT: XC functional enforced from input :
     Exchange-correlation= PBE
                           (   1   4   3   4   0   0   0)
     Any further DFT definition will be discarded
     Please, verify this is what you really want


     gamma-point specific algorithms are used

     R & G space division:  proc/nbgrp/npool/nimage =      32
     Subspace diagonalization in iterative solution of the eigenvalue problem:
     a serial algorithm will be used


     Parallelization info
     --------------------
     sticks:   dense  smooth     PW     G-vecs:    dense   smooth      PW
     Min        1707    1707    426               301015   301015   37634
     Max        1710    1710    428               301034   301034   37648
     Sum       54693   54693  13673              9632757  9632757 1204469

     Using Slab Decomposition



     bravais-lattice index     =            0
     lattice parameter (alat)  =      75.7119  a.u.
     unit-cell volume          =  434002.3113 (a.u.)^3
     number of atoms/cell      =           66
     number of atomic types    =            2
     number of electrons       =       176.00
     number of Kohn-Sham states=           88
     kinetic-energy cutoff     =      30.0000  Ry
     charge density cutoff     =     120.0000  Ry
     scf convergence threshold =      1.0E-06
     mixing beta               =       0.5000
     number of iterations used =            8  plain     mixing
     Exchange-correlation= PBE
                           (   1   4   3   4   0   0   0)

     celldm(1)=  75.711877  celldm(2)=   0.000000  celldm(3)=   0.000000
     celldm(4)=   0.000000  celldm(5)=   0.000000  celldm(6)=   0.000000

     crystal axes: (cart. coord. in units of alat)
               a(1) = (   1.000000   0.000000   0.000000 )  
               a(2) = (   0.000000   1.000000   0.000000 )  
               a(3) = (   0.000000   0.000000   1.000000 )  

     reciprocal axes: (cart. coord. in units 2 pi/alat)
               b(1) = (  1.000000  0.000000  0.000000 )  
               b(2) = (  0.000000  1.000000  0.000000 )  
               b(3) = (  0.000000  0.000000  1.000000 )  


     PseudoPot. # 1 for H  read from file:
     /share/pfaendtnergroup/rverma7/QE_PP/H.pbe-rrkjus_psl.1.0.0.UPF
     MD5 check sum: f52b6d4d1c606e5624b1dc7b2218f220
     Pseudo is Ultrasoft, Zval =  1.0
     Generated using "atomic" code by A. Dal Corso  v.5.1
     Using radial grid of  929 points,  2 beta functions with: 
                l(1) =   0
                l(2) =   0
     Q(r) pseudized with 0 coefficients 


     PseudoPot. # 2 for O  read from file:
     /share/pfaendtnergroup/rverma7/QE_PP/O.pbe-n-kjpaw_psl.0.1.UPF
     MD5 check sum: 0234752ac141de4415c5fc33072bef88
     Pseudo is Projector augmented-wave + core cor, Zval =  6.0
     Generated using "atomic" code by A. Dal Corso  v.5.0.99 svn rev. 10869
     Shape of augmentation charge: BESSEL
     Using radial grid of 1095 points,  4 beta functions with: 
                l(1) =   0
                l(2) =   0
                l(3) =   1
                l(4) =   1
     Q(r) pseudized with 0 coefficients 


     atomic species   valence    mass     pseudopotential
        H              1.00     1.00800     H ( 1.00)
        O              6.00    15.99900     O ( 1.00)

     No symmetry found



   Cartesian axes

     site n.     atom                  positions (alat units)
         1           H   tau(   1) = (   0.1921627   0.2249345   0.4571571  )
         2           H   tau(   2) = (   0.1773867   0.1916885   0.4679646  )
         3           H   tau(   3) = (   0.2710346   0.2685137   0.3502558  )
         4           H   tau(   4) = (   0.2818170   0.2499688   0.3836016  )
         5           H   tau(   5) = (   0.2528391   0.2017721   0.3644827  )
         6           H   tau(   6) = (   0.2784226   0.1984775   0.3981780  )
         7           H   tau(   7) = (   0.2961687   0.3006365   0.4548609  )
         8           H   tau(   8) = (   0.2944216   0.2811681   0.4166230  )
         9           H   tau(   9) = (   0.3224011   0.2547860   0.4450019  )
        10           H   tau(  10) = (   0.3411956   0.2190441   0.4617746  )
        11           H   tau(  11) = (   0.3731436   0.1731436   0.4205167  )
        12           H   tau(  12) = (   0.3941096   0.1490827   0.4455510  )
        13           H   tau(  13) = (   0.3941595   0.2178210   0.3877449  )
        14           H   tau(  14) = (   0.3598902   0.2178210   0.4119306  )
        15           H   tau(  15) = (   0.2436790   0.2174466   0.2818170  )
        16           H   tau(  16) = (   0.2686634   0.2125296   0.2476975  )
        17           H   tau(  17) = (   0.3581181   0.2943716   0.3126420  )
        18           H   tau(  18) = (   0.3899663   0.3117185   0.2965681  )
        19           H   tau(  19) = (   0.3741171   0.3104455   0.3656059  )
        20           H   tau(  20) = (   0.3471609   0.2900537   0.3836266  )
        21           H   tau(  21) = (   0.3299388   0.1738675   0.5058779  )
        22           H   tau(  22) = (   0.3356296   0.1685261   0.4671159  )
        23           H   tau(  23) = (   0.2499189   0.2570822   0.4596281  )
        24           H   tau(  24) = (   0.2184700   0.2659179   0.4407837  )
        25           H   tau(  25) = (   0.2030700   0.2501435   0.3932610  )
        26           H   tau(  26) = (   0.1835268   0.2143517   0.4001997  )
        27           H   tau(  27) = (   0.2607263   0.2666916   0.2880569  )
        28           H   tau(  28) = (   0.2403844   0.2504181   0.3192562  )
        29           H   tau(  29) = (   0.3024585   0.3556720   0.4842132  )
        30           H   tau(  30) = (   0.3251716   0.3246724   0.4697367  )
        31           H   tau(  31) = (   0.2890802   0.1880694   0.4557844  )
        32           H   tau(  32) = (   0.2503182   0.2053663   0.4505429  )
        33           H   tau(  33) = (   0.4353675   0.2674903   0.3700986  )
        34           H   tau(  34) = (   0.3951828   0.2653937   0.3855235  )
        35           H   tau(  35) = (   0.2074130   0.3168601   0.3819543  )
        36           H   tau(  36) = (   0.2404593   0.2932485   0.3940347  )
        37           H   tau(  37) = (   0.3556471   0.1894422   0.3536753  )
        38           H   tau(  38) = (   0.3181830   0.2040185   0.3452889  )
        39           H   tau(  39) = (   0.3370273   0.2355422   0.3114189  )
        40           H   tau(  40) = (   0.3033820   0.2578809   0.3039062  )
        41           H   tau(  41) = (   0.1893174   0.2197429   0.3095220  )
        42           H   tau(  42) = (   0.2074379   0.2189941   0.3432173  )
        43           H   tau(  43) = (   0.3631349   0.2893548   0.4575814  )
        44           H   tau(  44) = (   0.3723699   0.3197055   0.4338700  )
        45           O   tau(  45) = (   0.1750655   0.2079121   0.4504430  )
        46           O   tau(  46) = (   0.2801697   0.2747036   0.3751654  )
        47           O   tau(  47) = (   0.2763509   0.2084862   0.3735430  )
        48           O   tau(  48) = (   0.2940721   0.2771746   0.4419568  )
        49           O   tau(  49) = (   0.3444153   0.2394110   0.4446275  )
        50           O   tau(  50) = (   0.3706976   0.1588169   0.4417571  )
        51           O   tau(  51) = (   0.3732185   0.2031948   0.3945838  )
        52           O   tau(  52) = (   0.2501934   0.2262573   0.2582553  )
        53           O   tau(  53) = (   0.3797329   0.3059778   0.3178086  )
        54           O   tau(  54) = (   0.3713715   0.2965182   0.3863472  )
        55           O   tau(  55) = (   0.3201298   0.1798577   0.4832397  )
        56           O   tau(  56) = (   0.2271309   0.2475727   0.4561837  )
        57           O   tau(  57) = (   0.1974791   0.2270810   0.3827281  )
        58           O   tau(  58) = (   0.2600025   0.2655435   0.3143642  )
        59           O   tau(  59) = (   0.3016598   0.3327593   0.4730313  )
        60           O   tau(  60) = (   0.2685137   0.1908648   0.4392113  )
        61           O   tau(  61) = (   0.4185199   0.2515662   0.3824535  )
        62           O   tau(  62) = (   0.2149507   0.2946462   0.3939099  )
        63           O   tau(  63) = (   0.3407213   0.2013229   0.3350555  )
        64           O   tau(  64) = (   0.3282416   0.2575315   0.3039561  )
        65           O   tau(  65) = (   0.2116061   0.2161737   0.3185324  )
        66           O   tau(  66) = (   0.3599900   0.3148883   0.4546861  )

     number of k points=     1
                       cart. coord. in units 2pi/alat
        k(    1) = (   0.0000000   0.0000000   0.0000000), wk =   2.0000000

     Dense  grid:  4816379 G-vectors     FFT dimensions: ( 270, 270, 270)

     Estimated max dynamical RAM per process >     612.29 MB

     Estimated total dynamical RAM >      19.13 GB

     Check: negative core charge=   -0.000006

     Initial potential from superposition of free atoms

     starting charge     175.9995, renormalised to     176.0000

     negative rho (up, down):  3.712E-01 0.000E+00
     Starting wfcs are  132 randomized atomic wfcs
     Checking if some PAW data can be deallocated... 

     total cpu time spent up to now is        8.0 secs

     Self-consistent Calculation

     iteration #  1     ecut=    30.00 Ry     beta= 0.50
     Davidson diagonalization with overlap
     ethr =  1.00E-02,  avg # of iterations =  2.0

     negative rho (up, down):  4.362E-01 0.000E+00

     total cpu time spent up to now is       16.2 secs

     total energy              =    -965.72225206 Ry
     estimated scf accuracy    <       6.78910480 Ry

     iteration #  2     ecut=    30.00 Ry     beta= 0.50
     Davidson diagonalization with overlap
     ethr =  3.86E-03,  avg # of iterations =  2.0

     negative rho (up, down):  4.554E-01 0.000E+00

     total cpu time spent up to now is       27.0 secs

     total energy              =    -967.62792367 Ry
     estimated scf accuracy    <       1.00603641 Ry

     iteration #  3     ecut=    30.00 Ry     beta= 0.50
     Davidson diagonalization with overlap
     ethr =  5.72E-04,  avg # of iterations =  2.0

     negative rho (up, down):  4.990E-01 0.000E+00

     total cpu time spent up to now is       34.4 secs

     total energy              =    -967.68276855 Ry
     estimated scf accuracy    <       0.12993416 Ry

     iteration #  4     ecut=    30.00 Ry     beta= 0.50
     Davidson diagonalization with overlap
     ethr =  7.38E-05,  avg # of iterations =  3.0

     negative rho (up, down):  4.993E-01 0.000E+00

     total cpu time spent up to now is       42.9 secs

     total energy              =    -967.70737927 Ry
     estimated scf accuracy    <       0.04073895 Ry

     iteration #  5     ecut=    30.00 Ry     beta= 0.50
     Davidson diagonalization with overlap
     ethr =  2.31E-05,  avg # of iterations =  2.0

     negative rho (up, down):  4.982E-01 0.000E+00

     total cpu time spent up to now is       49.7 secs

     total energy              =    -967.70753694 Ry
     estimated scf accuracy    <       0.00843919 Ry

     iteration #  6     ecut=    30.00 Ry     beta= 0.50
     Davidson diagonalization with overlap
     ethr =  4.79E-06,  avg # of iterations =  2.0

     negative rho (up, down):  4.975E-01 0.000E+00

     total cpu time spent up to now is       56.8 secs

     total energy              =    -967.70775004 Ry
     estimated scf accuracy    <       0.00179763 Ry

     iteration #  7     ecut=    30.00 Ry     beta= 0.50
     Davidson diagonalization with overlap
     ethr =  1.02E-06,  avg # of iterations =  2.0

     negative rho (up, down):  4.971E-01 0.000E+00

     total cpu time spent up to now is       64.3 secs

     total energy              =    -967.70788518 Ry
     estimated scf accuracy    <       0.00027763 Ry

     iteration #  8     ecut=    30.00 Ry     beta= 0.50
     Davidson diagonalization with overlap
     ethr =  1.58E-07,  avg # of iterations =  2.0

     negative rho (up, down):  4.970E-01 0.000E+00

     total cpu time spent up to now is       72.6 secs

     total energy              =    -967.70796071 Ry
     estimated scf accuracy    <       0.00001816 Ry

     iteration #  9     ecut=    30.00 Ry     beta= 0.50
     Davidson diagonalization with overlap
     ethr =  1.03E-08,  avg # of iterations =  2.0

     negative rho (up, down):  4.971E-01 0.000E+00

     total cpu time spent up to now is       80.6 secs

     total energy              =    -967.70795849 Ry
     estimated scf accuracy    <       0.00001326 Ry

     iteration # 10     ecut=    30.00 Ry     beta= 0.50
     Davidson diagonalization with overlap
     ethr =  7.53E-09,  avg # of iterations =  2.0

     negative rho (up, down):  4.971E-01 0.000E+00

     total cpu time spent up to now is       88.2 secs

     End of self-consistent calculation

          k = 0.0000 0.0000 0.0000 (602235 PWs)   bands (ev):

   -26.1372 -25.9491 -25.8821 -25.7619 -25.7199 -25.5967 -25.2893 -25.2411
   -25.1241 -24.9769 -24.8388 -24.8072 -24.7673 -24.6742 -24.6011 -24.2044
   -24.1308 -24.0072 -23.9815 -23.7803 -23.5891 -23.4347 -14.3429 -13.9005
   -13.6244 -13.5560 -13.4726 -13.3463 -13.2118 -13.1383 -13.0648 -12.8465
   -12.8100 -12.7147 -12.6587 -12.6098 -12.4544 -12.3665 -12.2362 -12.1963
   -12.1334 -11.8489 -11.6666 -11.4847 -11.0300 -10.8763 -10.7962 -10.6774
   -10.4966 -10.3785  -9.8745  -9.7559  -9.6472  -9.5901  -9.3657  -9.3298
    -9.2432  -9.0614  -9.0307  -8.8580  -8.7575  -8.6661  -8.5728  -8.3837
    -8.2704  -8.0698  -7.9875  -7.8975  -7.8071  -7.7821  -7.7089  -7.5151
    -7.5012  -7.3961  -7.3504  -7.2522  -7.1386  -7.1364  -7.0207  -7.0040
    -6.9370  -6.9074  -6.8584  -6.7289  -6.6324  -6.3880  -6.2204  -5.8018

     highest occupied level (ev):    -5.8018

!    total energy              =    -967.70795990 Ry
     estimated scf accuracy    <       0.00000062 Ry

     The total energy is the sum of the following terms:
     one-electron contribution =   -5938.96253074 Ry
     hartree contribution      =    3004.43256924 Ry
     xc contribution           =    -193.44967956 Ry
     ewald contribution        =    2369.59144153 Ry
     one-center paw contrib.   =    -209.31976037 Ry

     convergence has been achieved in  10 iterations

     negative rho (up, down):  4.971E-01 0.000E+00

     Forces acting on atoms (cartesian axes, Ry/au):

     atom    1 type  1   force =    -0.01249933   -0.01817565   -0.00562810
     atom    2 type  1   force =    -0.00400863   -0.03011063    0.01833226
     atom    3 type  1   force =     0.05185905    0.05168708    0.07696466
     atom    4 type  1   force =    -0.01282691    0.04664639   -0.03509546
     atom    5 type  1   force =     0.08634512    0.01889047    0.05079446
     atom    6 type  1   force =    -0.03329768    0.02342432   -0.05620782
     atom    7 type  1   force =    -0.02895623   -0.06634612   -0.05384505
     atom    8 type  1   force =    -0.01369089    0.00878845    0.04782426
     atom    9 type  1   force =     0.03219350   -0.03789895    0.00658964
     atom   10 type  1   force =     0.00159030    0.09295534   -0.06460989
     atom   11 type  1   force =     0.00939945   -0.00201841    0.01419012
     atom   12 type  1   force =    -0.07490180    0.03028359   -0.00896678
     atom   13 type  1   force =    -0.05284662   -0.04190833    0.02065996
     atom   14 type  1   force =     0.02894021   -0.01497447   -0.03611587
     atom   15 type  1   force =     0.02948047    0.00256444   -0.08092500
     atom   16 type  1   force =    -0.04384830    0.02308982    0.04480496
     atom   17 type  1   force =     0.01398073   -0.01143726   -0.00883908
     atom   18 type  1   force =    -0.00248532    0.00124000   -0.00663243
     atom   19 type  1   force =     0.01608501   -0.02075107    0.00408677
     atom   20 type  1   force =     0.03378070    0.00218802    0.01001914
     atom   21 type  1   force =    -0.02994414    0.01580669   -0.05420957
     atom   22 type  1   force =     0.01752998   -0.00752583    0.00352342
     atom   23 type  1   force =     0.00153193   -0.01021426    0.00241597
     atom   24 type  1   force =     0.00719032   -0.03656443    0.02717672
     atom   25 type  1   force =    -0.02073854   -0.05604559   -0.04298345
     atom   26 type  1   force =     0.04148776    0.03230975   -0.03458434
     atom   27 type  1   force =    -0.01066221   -0.01387753    0.08575278
     atom   28 type  1   force =     0.00926390    0.00787579   -0.02439353
     atom   29 type  1   force =    -0.00185783   -0.07012716   -0.03353244
     atom   30 type  1   force =     0.02529977    0.03466272   -0.00238251
     atom   31 type  1   force =    -0.09008561    0.01332477   -0.03994179
     atom   32 type  1   force =     0.06286462   -0.03771941   -0.03786092
     atom   33 type  1   force =    -0.08137543   -0.06599161    0.04675321
     atom   34 type  1   force =     0.09967835   -0.01723067   -0.02642486
     atom   35 type  1   force =     0.04231345   -0.09598396    0.05202922
     atom   36 type  1   force =    -0.02832382    0.00738298   -0.02910007
     atom   37 type  1   force =    -0.06472330    0.06922783   -0.05865904
     atom   38 type  1   force =     0.01817297   -0.01228934    0.00778788
     atom   39 type  1   force =    -0.00851301   -0.00631432    0.01236717
     atom   40 type  1   force =     0.03604980   -0.01779999    0.01654143
     atom   41 type  1   force =    -0.00702627    0.00137706   -0.01267022
     atom   42 type  1   force =    -0.00907559   -0.00184198    0.01133828
     atom   43 type  1   force =    -0.00688693    0.06370627   -0.01344972
     atom   44 type  1   force =    -0.01407918   -0.00675833    0.00030413
     atom   45 type  2   force =     0.00111943    0.03315817   -0.01654230
     atom   46 type  2   force =    -0.02625479   -0.06736395   -0.02453583
     atom   47 type  2   force =    -0.05151752   -0.05499835    0.02352125
     atom   48 type  2   force =    -0.01242155    0.05818008   -0.00385081
     atom   49 type  2   force =    -0.01854926   -0.06341430    0.06659683
     atom   50 type  2   force =     0.06236702   -0.03511047    0.00490369
     atom   51 type  2   force =     0.02936864    0.05403582    0.01432564
     atom   52 type  2   force =     0.00958943   -0.02829552    0.03274250
     atom   53 type  2   force =    -0.02028001    0.00053653    0.01731824
     atom   54 type  2   force =    -0.06577590    0.02457315   -0.01933700
     atom   55 type  2   force =     0.03736749   -0.01212976    0.04371347
     atom   56 type  2   force =     0.01123238    0.07561109   -0.02769812
     atom   57 type  2   force =    -0.02243485    0.02306014    0.06722610
     atom   58 type  2   force =    -0.03077866    0.00272232   -0.08331938
     atom   59 type  2   force =    -0.01628529    0.06348962    0.04549267
     atom   60 type  2   force =     0.02436751    0.01727605    0.06632990
     atom   61 type  2   force =    -0.00288484    0.08064893   -0.02341996
     atom   62 type  2   force =    -0.00351513    0.07301325   -0.02320216
     atom   63 type  2   force =     0.03234807   -0.06232283    0.04962232
     atom   64 type  2   force =    -0.00214360    0.04627632   -0.02492331
     atom   65 type  2   force =     0.01216555    0.00301076    0.00643279
     atom   66 type  2   force =     0.04053207   -0.07948350    0.01540502
     The non-local contrib.  to forces
     atom    1 type  1   force =    -0.06719822   -0.06863795   -0.02498453
     atom    2 type  1   force =    -0.00925811    0.08001264   -0.08419647
     atom    3 type  1   force =     0.02124033    0.01396726    0.05940851
     atom    4 type  1   force =    -0.00551222    0.07774362   -0.02612917
     atom    5 type  1   force =     0.07707428    0.02143574    0.03191916
     atom    6 type  1   force =    -0.00827749    0.02783928   -0.07036528
     atom    7 type  1   force =    -0.00368508   -0.05976304   -0.03547333
     atom    8 type  1   force =    -0.00042964   -0.01206930    0.09005290
     atom    9 type  1   force =     0.05109007   -0.03693762   -0.00045999
     atom   10 type  1   force =     0.00709336    0.05843704   -0.04839693
     atom   11 type  1   force =    -0.00621756   -0.04664661    0.07013116
     atom   12 type  1   force =    -0.08238611    0.03557405   -0.01463430
     atom   13 type  1   force =    -0.06342623   -0.04188172    0.02216268
     atom   14 type  1   force =     0.04112638   -0.04283243   -0.05227081
     atom   15 type  1   force =     0.02541231    0.02682431   -0.07937650
     atom   16 type  1   force =    -0.06982542    0.04962963    0.04379367
     atom   17 type  1   force =     0.08687407    0.04776687    0.01745859
     atom   18 type  1   force =    -0.04962923   -0.02717586    0.09663657
     atom   19 type  1   force =    -0.01276348   -0.05566470    0.08291623
     atom   20 type  1   force =     0.09496999    0.02635641    0.00963780
     atom   21 type  1   force =    -0.03522312    0.02133492   -0.08562954
     atom   22 type  1   force =    -0.06057047    0.04431512    0.06578682
     atom   23 type  1   force =    -0.09429040   -0.03823042   -0.01417281
     atom   24 type  1   force =     0.03307802   -0.06823369    0.05662742
     atom   25 type  1   force =    -0.01962061   -0.07807068   -0.03235739
     atom   26 type  1   force =     0.04965651    0.04699415   -0.06134721
     atom   27 type  1   force =    -0.00310161   -0.00432376    0.08283554
     atom   28 type  1   force =     0.07458413    0.05666708   -0.02074608
     atom   29 type  1   force =    -0.00045174   -0.08322957   -0.04047905
     atom   30 type  1   force =    -0.08877165    0.03265886    0.01354337
     atom   31 type  1   force =    -0.06136060    0.01029423   -0.04718832
     atom   32 type  1   force =     0.06440485   -0.04875618   -0.03570867
     atom   33 type  1   force =    -0.05476583   -0.04806209    0.03833184
     atom   34 type  1   force =     0.05763177   -0.03034398   -0.00906120
     atom   35 type  1   force =     0.02646420   -0.06903745    0.03723321
     atom   36 type  1   force =    -0.09221179    0.00826165   -0.00148014
     atom   37 type  1   force =    -0.04581323    0.03437638   -0.05360261
     atom   38 type  1   force =     0.09390876   -0.01192969   -0.04008316
     atom   39 type  1   force =    -0.03993277    0.08841607   -0.02989311
     atom   40 type  1   force =     0.10155472   -0.00466962    0.00061393
     atom   41 type  1   force =     0.10240332   -0.01549333    0.04333007
     atom   42 type  1   force =     0.01493984   -0.01013303   -0.09407340
     atom   43 type  1   force =    -0.00993913    0.08824644   -0.01176781
     atom   44 type  1   force =    -0.05316730   -0.02227028    0.08985548
     atom   45 type  2   force =     1.35429978   -0.13147666    1.73819177
     atom   46 type  2   force =    -0.43198217   -1.61671755   -0.49891036
     atom   47 type  2   force =    -1.46263961   -0.94330437    0.80535512
     atom   48 type  2   force =     0.35303898    1.39480175   -0.86932627
     atom   49 type  2   force =    -1.26031992   -0.56818952    0.97141583
     atom   50 type  2   force =     1.67994251    0.14706741   -0.79819706
     atom   51 type  2   force =     0.48749425    1.45859685    0.69211101
     atom   52 type  2   force =     1.06680238   -1.64799638    0.93145606
     atom   53 type  2   force =    -0.71520319   -0.20039295   -1.93039714
     atom   54 type  2   force =    -1.42731448    0.36982016   -1.52516726
     atom   55 type  2   force =     1.63725429   -1.06243742    0.48517618
     atom   56 type  2   force =     0.84993314    1.75008138   -0.77928582
     atom   57 type  2   force =    -0.53368334    0.55064046    1.64284657
     atom   58 type  2   force =    -1.06209387   -0.90353988   -1.15103386
     atom   59 type  2   force =     1.43704154    0.95136122    0.54947684
     atom   60 type  2   force =     0.16177177    0.93546014    1.65252194
     atom   61 type  2   force =    -0.20020467    1.73059867   -0.73953183
     atom   62 type  2   force =     1.10545201    1.40100859   -0.72854472
     atom   63 type  2   force =    -0.67894467   -0.49007308    1.76303533
     atom   64 type  2   force =    -1.15642406   -1.31444518    0.46784013
     atom   65 type  2   force =    -1.74917762    0.63230931    0.79259312
     atom   66 type  2   force =     0.89963715   -1.29757684   -1.20913228
     The ionic contribution  to forces
     atom    1 type  1   force =    -0.49924900    1.39744006    2.41190559
     atom    2 type  1   force =    -1.39656785   -3.60765418    3.83899069
     atom    3 type  1   force =    -1.01658489    0.97718592   -2.40314430
     atom    4 type  1   force =     0.09755000   -1.77456254    0.76339517
     atom    5 type  1   force =    -3.23088643   -2.86056276   -1.69306090
     atom    6 type  1   force =     0.02334249   -2.91809046    1.75926615
     atom    7 type  1   force =    -0.63181731    2.86980029    2.27258891
     atom    8 type  1   force =    -0.00298129    2.02651054   -1.94403869
     atom    9 type  1   force =    -0.66950115    0.88514245    1.70101306
     atom   10 type  1   force =     0.94354343   -2.03807234    3.60095418
     atom   11 type  1   force =     1.75103457   -1.07535655   -1.57175327
     atom   12 type  1   force =     4.37342140   -2.94436392    1.26118469
     atom   13 type  1   force =     4.06556036   -0.11201541   -0.95808513
     atom   14 type  1   force =     0.16486749    0.41256134    1.57552140
     atom   15 type  1   force =    -1.29200727   -2.11405475    0.09133511
     atom   16 type  1   force =     2.21780471   -2.46266440   -3.55337391
     atom   17 type  1   force =    -1.51823824    0.20113956   -2.28443305
     atom   18 type  1   force =     2.80786921    2.01475431   -4.56006540
     atom   19 type  1   force =     1.59652861    3.83425916   -2.67074352
     atom   20 type  1   force =    -2.17099020    0.76197804   -0.72577005
     atom   21 type  1   force =     1.49794962   -1.84184962    5.07114058
     atom   22 type  1   force =     1.92311344   -3.22015798   -0.13438407
     atom   23 type  1   force =     1.54471243    1.61445627    2.79780600
     atom   24 type  1   force =    -2.84000013    3.15556394   -0.12100491
     atom   25 type  1   force =    -1.83678692    2.41887077    0.92232971
     atom   26 type  1   force =    -3.92286187   -2.45199146    1.52749704
     atom   27 type  1   force =    -0.51675530    1.69563110   -4.83135309
     atom   28 type  1   force =    -3.33786465   -0.75722919   -0.92820211
     atom   29 type  1   force =    -0.22453586    4.76691299    2.73528372
     atom   30 type  1   force =     2.54879251    1.22748322    1.70326298
     atom   31 type  1   force =     1.03954142   -1.92151888    2.65683957
     atom   32 type  1   force =    -2.80927583   -0.22041106    2.76713121
     atom   33 type  1   force =     4.44468546    2.01364608   -1.79271365
     atom   34 type  1   force =     0.63761132    1.08803062    0.14258063
     atom   35 type  1   force =    -2.56097728    4.48474692   -1.59966092
     atom   36 type  1   force =     1.23261820    2.14542258    0.16321430
     atom   37 type  1   force =     2.57883252   -3.34493941    0.15467776
     atom   38 type  1   force =    -2.15621079   -1.50655840   -0.21415384
     atom   39 type  1   force =     2.21570292   -2.65352204   -1.59972689
     atom   40 type  1   force =    -2.15880031    0.57055617   -2.33451088
     atom   41 type  1   force =    -5.26538426   -0.07925713   -2.76929590
     atom   42 type  1   force =    -2.34631789   -0.78246921    1.29394548
     atom   43 type  1   force =     2.22514903   -1.73394638    2.28704374
     atom   44 type  1   force =     3.27282049    2.81265881   -1.69187450
     atom   45 type  2   force =   -15.31886910   -5.36110137    3.67115670
     atom   46 type  2   force =    -0.38107705   12.13441670   -2.47139796
     atom   47 type  2   force =    -0.46102486   -9.82657539   -4.98042604
     atom   48 type  2   force =    -3.35903445    4.22310686    9.56769518
     atom   49 type  2   force =     9.62900779   -0.34180692    8.48265357
     atom   50 type  2   force =     5.85894152  -13.41361687    6.21049474
     atom   51 type  2   force =     9.63825547  -10.37938217   -2.89777798
     atom   52 type  2   force =    -4.70969496   -0.62111560  -15.96256153
     atom   53 type  2   force =     9.34611607    9.17986607   -6.29263506
     atom   54 type  2   force =     9.76752791    9.78431486    1.27236416
     atom   55 type  2   force =    -1.61515572   -6.88292696   13.17691169
     atom   56 type  2   force =    -9.63985242    0.07580359   13.18941164
     atom   57 type  2   force =   -13.31319922   -4.56984644   -3.88877403
     atom   58 type  2   force =    -3.50983819    9.22337495   -9.65549144
     atom   59 type  2   force =    -5.34985939   11.95550372    9.48436236
     atom   60 type  2   force =    -4.97335390  -13.27208236    4.17501759
     atom   61 type  2   force =    17.04890361   -2.30761985   -0.54923585
     atom   62 type  2   force =   -13.39581065   10.50589002    0.93436710
     atom   63 type  2   force =     7.31725512  -10.30664679  -12.23043270
     atom   64 type  2   force =     6.54419319    4.73703288  -14.40581324
     atom   65 type  2   force =    -8.45820036   -7.44350458  -10.07256291
     atom   66 type  2   force =     8.53631270   11.95341258   10.12511531
     The local contribution  to forces
     atom    1 type  1   force =     0.55396941   -1.34701456   -2.39258285
     atom    2 type  1   force =     1.40184520    3.49749886   -3.73649265
     atom    3 type  1   force =     1.04721888   -0.93952134    2.42064724
     atom    4 type  1   force =    -0.10484252    1.74340936   -0.77238945
     atom    5 type  1   force =     3.24016596    2.85798525    1.71190062
     atom    6 type  1   force =    -0.04833697    2.91364845   -1.74513917
     atom    7 type  1   force =     0.60657627   -2.87640693   -2.29100081
     atom    8 type  1   force =    -0.01025113   -2.00568866    1.90176423
     atom    9 type  1   force =     0.65062336   -0.88613769   -1.69400097
     atom   10 type  1   force =    -0.94902603    2.07254186   -3.61719672
     atom   11 type  1   force =    -1.73538310    1.11995972    1.51577469
     atom   12 type  1   force =    -4.36589491    2.93904169   -1.25555405
     atom   13 type  1   force =    -4.05493168    0.11198642    0.95654169
     atom   14 type  1   force =    -0.17703961   -0.38472127   -1.55938570
     atom   15 type  1   force =     1.29609785    2.08973048   -0.09283242
     atom   16 type  1   force =    -2.19172109    2.43603086    3.55431483
     atom   17 type  1   force =     1.44536813   -0.26036495    2.25809443
     atom   18 type  1   force =    -2.76069924   -1.98636516    4.45674325
     atom   19 type  1   force =    -1.56766745   -3.79936211    2.59185332
     atom   20 type  1   force =     2.10979659   -0.78618176    0.72610357
     atom   21 type  1   force =    -1.49263314    1.83628907   -5.03975640
     atom   22 type  1   force =    -1.84498294    3.16829458    0.07208665
     atom   23 type  1   force =    -1.44884967   -1.58645928   -2.78126362
     atom   24 type  1   force =     2.81413581   -3.12390221    0.09149366
     atom   25 type  1   force =     1.83569993   -2.39684907   -0.93297536
     atom   26 type  1   force =     3.91470458    2.43726985   -1.50075022
     atom   27 type  1   force =     0.50922633   -1.70520978    4.83423229
     atom   28 type  1   force =     3.27256623    0.70841011    0.92452469
     atom   29 type  1   force =     0.22315826   -4.75381501   -2.72836244
     atom   30 type  1   force =    -2.43469119   -1.22551188   -1.71922609
     atom   31 type  1   force =    -1.06822102    1.92452589   -2.64961544
     atom   32 type  1   force =     2.80774877    0.23143241   -2.76931183
     atom   33 type  1   force =    -4.47127634   -2.03161566    1.80110141
     atom   34 type  1   force =    -0.59552797   -1.07497656   -0.15998696
     atom   35 type  1   force =     2.57684970   -4.51172245    1.61441812
     atom   36 type  1   force =    -1.16871528   -2.14633570   -0.19086514
     atom   37 type  1   force =    -2.59770623    3.37974107   -0.15973307
     atom   38 type  1   force =     2.08045806    1.50617584    0.26201397
     atom   39 type  1   force =    -2.18425732    2.55872818    1.64196433
     atom   40 type  1   force =     2.09326088   -0.58372923    2.35040578
     atom   41 type  1   force =     5.15592914    0.09611032    2.71325742
     atom   42 type  1   force =     2.32231332    0.79074117   -1.18853851
     atom   43 type  1   force =    -2.22206801    1.70934729   -2.28876434
     atom   44 type  1   force =    -3.23369520   -2.79718043    1.60226565
     atom   45 type  2   force =    13.97877917    5.52421676   -5.40870751
     atom   46 type  2   force =     0.78324515  -10.60129038    2.94038580
     atom   47 type  2   force =     1.85706087   10.70361374    4.20711101
     atom   48 type  2   force =     2.99655058   -5.54524339   -8.71053879
     atom   49 type  2   force =    -8.39906326    0.83948417   -9.37668939
     atom   50 type  2   force =    -7.45840378   13.23176061   -5.41425616
     atom   51 type  2   force =   -10.09081305    8.98977559    2.22694926
     atom   52 type  2   force =     3.66426570    2.22273339   15.07331968
     atom   53 type  2   force =    -8.65849323   -8.98034819    8.22089307
     atom   54 type  2   force =    -8.42114409  -10.12530541    0.21820994
     atom   55 type  2   force =     0.03101358    7.92315131  -13.61283183
     atom   56 type  2   force =     8.80927397   -1.73282620  -12.44566984
     atom   57 type  2   force =    13.81838057    4.04753968    2.32969884
     atom   58 type  2   force =     4.53050593   -8.32523618   10.71083552
     atom   59 type  2   force =     3.91024226  -12.83147492   -9.98151927
     atom   60 type  2   force =     4.83787374   12.36403522   -5.74352662
     atom   61 type  2   force =   -16.85268000    0.67625032    1.25777161
     atom   62 type  2   force =    12.29678135  -11.81865552   -0.23685356
     atom   63 type  2   force =    -6.61180027   10.72852571   10.53539998
     atom   64 type  2   force =    -5.40174378   -3.38896112   13.91645244
     atom   65 type  2   force =    10.20159753    6.82072647    9.29400721
     atom   66 type  2   force =    -9.38604291  -10.74806938   -8.91225410
     The core correction contribution to forces
     atom    1 type  1   force =     0.00000000    0.00000000    0.00000000
     atom    2 type  1   force =     0.00000000    0.00000000    0.00000000
     atom    3 type  1   force =     0.00000000    0.00000000    0.00000000
     atom    4 type  1   force =     0.00000000    0.00000000    0.00000000
     atom    5 type  1   force =     0.00000000    0.00000000    0.00000000
     atom    6 type  1   force =     0.00000000    0.00000000    0.00000000
     atom    7 type  1   force =     0.00000000    0.00000000    0.00000000
     atom    8 type  1   force =     0.00000000    0.00000000    0.00000000
     atom    9 type  1   force =     0.00000000    0.00000000    0.00000000
     atom   10 type  1   force =     0.00000000    0.00000000    0.00000000
     atom   11 type  1   force =     0.00000000    0.00000000    0.00000000
     atom   12 type  1   force =     0.00000000    0.00000000    0.00000000
     atom   13 type  1   force =     0.00000000    0.00000000    0.00000000
     atom   14 type  1   force =     0.00000000    0.00000000    0.00000000
     atom   15 type  1   force =     0.00000000    0.00000000    0.00000000
     atom   16 type  1   force =     0.00000000    0.00000000    0.00000000
     atom   17 type  1   force =     0.00000000    0.00000000    0.00000000
     atom   18 type  1   force =     0.00000000    0.00000000    0.00000000
     atom   19 type  1   force =     0.00000000    0.00000000    0.00000000
     atom   20 type  1   force =     0.00000000    0.00000000    0.00000000
     atom   21 type  1   force =     0.00000000    0.00000000    0.00000000
     atom   22 type  1   force =     0.00000000    0.00000000    0.00000000
     atom   23 type  1   force =     0.00000000    0.00000000    0.00000000
     atom   24 type  1   force =     0.00000000    0.00000000    0.00000000
     atom   25 type  1   force =     0.00000000    0.00000000    0.00000000
     atom   26 type  1   force =     0.00000000    0.00000000    0.00000000
     atom   27 type  1   force =     0.00000000    0.00000000    0.00000000
     atom   28 type  1   force =     0.00000000    0.00000000    0.00000000
     atom   29 type  1   force =     0.00000000    0.00000000    0.00000000
     atom   30 type  1   force =     0.00000000    0.00000000    0.00000000
     atom   31 type  1   force =     0.00000000    0.00000000    0.00000000
     atom   32 type  1   force =     0.00000000    0.00000000    0.00000000
     atom   33 type  1   force =     0.00000000    0.00000000    0.00000000
     atom   34 type  1   force =     0.00000000    0.00000000    0.00000000
     atom   35 type  1   force =     0.00000000    0.00000000    0.00000000
     atom   36 type  1   force =     0.00000000    0.00000000    0.00000000
     atom   37 type  1   force =     0.00000000    0.00000000    0.00000000
     atom   38 type  1   force =     0.00000000    0.00000000    0.00000000
     atom   39 type  1   force =     0.00000000    0.00000000    0.00000000
     atom   40 type  1   force =     0.00000000    0.00000000    0.00000000
     atom   41 type  1   force =     0.00000000    0.00000000    0.00000000
     atom   42 type  1   force =     0.00000000    0.00000000    0.00000000
     atom   43 type  1   force =     0.00000000    0.00000000    0.00000000
     atom   44 type  1   force =     0.00000000    0.00000000    0.00000000
     atom   45 type  2   force =    -0.01297606    0.00141969   -0.01705497
     atom   46 type  2   force =     0.00355448    0.01590964    0.00535893
     atom   47 type  2   force =     0.01502051    0.01121764   -0.00846143
     atom   48 type  2   force =    -0.00290997   -0.01456050    0.00818641
     atom   49 type  2   force =     0.01173548    0.00696048   -0.01074484
     atom   50 type  2   force =    -0.01790543   -0.00033886    0.00677896
     atom   51 type  2   force =    -0.00554416   -0.01482616   -0.00690732
     atom   52 type  2   force =    -0.01160798    0.01786529   -0.00940727
     atom   53 type  2   force =     0.00728845    0.00137558    0.01921308
     atom   54 type  2   force =     0.01499083   -0.00426411    0.01506947
     atom   55 type  2   force =    -0.01555467    0.01000788   -0.00562526
     atom   56 type  2   force =    -0.00796884   -0.01731025    0.00769089
     atom   57 type  2   force =     0.00605434   -0.00523762   -0.01646034
     atom   58 type  2   force =     0.01061901    0.00796631    0.01231158
     atom   59 type  2   force =    -0.01354640   -0.01185117   -0.00685379
     atom   60 type  2   force =    -0.00189040   -0.01007169   -0.01759730
     atom   61 type  2   force =     0.00109924   -0.01861578    0.00752640
     atom   62 type  2   force =    -0.00985403   -0.01524410    0.00775415
     atom   63 type  2   force =     0.00568947    0.00583470   -0.01815900
     atom   64 type  2   force =     0.01168740    0.01244842   -0.00335605
     atom   65 type  2   force =     0.01773240   -0.00646467   -0.00748194
     atom   66 type  2   force =    -0.00928861    0.01255893    0.01151894
     The Hubbard contrib.    to forces
     atom    1 type  1   force =     0.00000000    0.00000000    0.00000000
     atom    2 type  1   force =     0.00000000    0.00000000    0.00000000
     atom    3 type  1   force =     0.00000000    0.00000000    0.00000000
     atom    4 type  1   force =     0.00000000    0.00000000    0.00000000
     atom    5 type  1   force =     0.00000000    0.00000000    0.00000000
     atom    6 type  1   force =     0.00000000    0.00000000    0.00000000
     atom    7 type  1   force =     0.00000000    0.00000000    0.00000000
     atom    8 type  1   force =     0.00000000    0.00000000    0.00000000
     atom    9 type  1   force =     0.00000000    0.00000000    0.00000000
     atom   10 type  1   force =     0.00000000    0.00000000    0.00000000
     atom   11 type  1   force =     0.00000000    0.00000000    0.00000000
     atom   12 type  1   force =     0.00000000    0.00000000    0.00000000
     atom   13 type  1   force =     0.00000000    0.00000000    0.00000000
     atom   14 type  1   force =     0.00000000    0.00000000    0.00000000
     atom   15 type  1   force =     0.00000000    0.00000000    0.00000000
     atom   16 type  1   force =     0.00000000    0.00000000    0.00000000
     atom   17 type  1   force =     0.00000000    0.00000000    0.00000000
     atom   18 type  1   force =     0.00000000    0.00000000    0.00000000
     atom   19 type  1   force =     0.00000000    0.00000000    0.00000000
     atom   20 type  1   force =     0.00000000    0.00000000    0.00000000
     atom   21 type  1   force =     0.00000000    0.00000000    0.00000000
     atom   22 type  1   force =     0.00000000    0.00000000    0.00000000
     atom   23 type  1   force =     0.00000000    0.00000000    0.00000000
     atom   24 type  1   force =     0.00000000    0.00000000    0.00000000
     atom   25 type  1   force =     0.00000000    0.00000000    0.00000000
     atom   26 type  1   force =     0.00000000    0.00000000    0.00000000
     atom   27 type  1   force =     0.00000000    0.00000000    0.00000000
     atom   28 type  1   force =     0.00000000    0.00000000    0.00000000
     atom   29 type  1   force =     0.00000000    0.00000000    0.00000000
     atom   30 type  1   force =     0.00000000    0.00000000    0.00000000
     atom   31 type  1   force =     0.00000000    0.00000000    0.00000000
     atom   32 type  1   force =     0.00000000    0.00000000    0.00000000
     atom   33 type  1   force =     0.00000000    0.00000000    0.00000000
     atom   34 type  1   force =     0.00000000    0.00000000    0.00000000
     atom   35 type  1   force =     0.00000000    0.00000000    0.00000000
     atom   36 type  1   force =     0.00000000    0.00000000    0.00000000
     atom   37 type  1   force =     0.00000000    0.00000000    0.00000000
     atom   38 type  1   force =     0.00000000    0.00000000    0.00000000
     atom   39 type  1   force =     0.00000000    0.00000000    0.00000000
     atom   40 type  1   force =     0.00000000    0.00000000    0.00000000
     atom   41 type  1   force =     0.00000000    0.00000000    0.00000000
     atom   42 type  1   force =     0.00000000    0.00000000    0.00000000
     atom   43 type  1   force =     0.00000000    0.00000000    0.00000000
     atom   44 type  1   force =     0.00000000    0.00000000    0.00000000
     atom   45 type  2   force =     0.00000000    0.00000000    0.00000000
     atom   46 type  2   force =     0.00000000    0.00000000    0.00000000
     atom   47 type  2   force =     0.00000000    0.00000000    0.00000000
     atom   48 type  2   force =     0.00000000    0.00000000    0.00000000
     atom   49 type  2   force =     0.00000000    0.00000000    0.00000000
     atom   50 type  2   force =     0.00000000    0.00000000    0.00000000
     atom   51 type  2   force =     0.00000000    0.00000000    0.00000000
     atom   52 type  2   force =     0.00000000    0.00000000    0.00000000
     atom   53 type  2   force =     0.00000000    0.00000000    0.00000000
     atom   54 type  2   force =     0.00000000    0.00000000    0.00000000
     atom   55 type  2   force =     0.00000000    0.00000000    0.00000000
     atom   56 type  2   force =     0.00000000    0.00000000    0.00000000
     atom   57 type  2   force =     0.00000000    0.00000000    0.00000000
     atom   58 type  2   force =     0.00000000    0.00000000    0.00000000
     atom   59 type  2   force =     0.00000000    0.00000000    0.00000000
     atom   60 type  2   force =     0.00000000    0.00000000    0.00000000
     atom   61 type  2   force =     0.00000000    0.00000000    0.00000000
     atom   62 type  2   force =     0.00000000    0.00000000    0.00000000
     atom   63 type  2   force =     0.00000000    0.00000000    0.00000000
     atom   64 type  2   force =     0.00000000    0.00000000    0.00000000
     atom   65 type  2   force =     0.00000000    0.00000000    0.00000000
     atom   66 type  2   force =     0.00000000    0.00000000    0.00000000
     The SCF correction term to forces
     atom    1 type  1   force =     0.00000213    0.00000777   -0.00000354
     atom    2 type  1   force =    -0.00000423    0.00000303   -0.00000654
     atom    3 type  1   force =     0.00000837    0.00002622    0.00001599
     atom    4 type  1   force =     0.00000148    0.00002693   -0.00000923
     atom    5 type  1   force =     0.00001496    0.00000321   -0.00000165
     atom    6 type  1   force =    -0.00000207   -0.00000197   -0.00000674
     atom    7 type  1   force =    -0.00000647   -0.00000545    0.00000295
     atom    8 type  1   force =    -0.00000518    0.00000684    0.00000860
     atom    9 type  1   force =     0.00000487    0.00000489    0.00000031
     atom   10 type  1   force =     0.00000319    0.00001977   -0.00000765
     atom   11 type  1   force =    -0.00001081   -0.00000399    0.00000031
     atom   12 type  1   force =    -0.00001854    0.00000275   -0.00000035
     atom   13 type  1   force =    -0.00002543   -0.00002663    0.00000350
     atom   14 type  1   force =     0.00000961   -0.00001113   -0.00001799
     atom   15 type  1   force =     0.00000122    0.00003537   -0.00008841
     atom   16 type  1   force =    -0.00008285    0.00006471    0.00003314
     atom   17 type  1   force =     0.00000041   -0.00000776    0.00000372
     atom   18 type  1   force =    -0.00000241   -0.00000232    0.00001591
     atom   19 type  1   force =     0.00001097   -0.00001244    0.00002351
     atom   20 type  1   force =     0.00002796    0.00000630    0.00001059
     atom   21 type  1   force =    -0.00001385    0.00000330   -0.00000143
     atom   22 type  1   force =    -0.00000641   -0.00000656   -0.00000321
     atom   23 type  1   force =    -0.00001678   -0.00000986    0.00000917
     atom   24 type  1   force =     0.00000026   -0.00002148    0.00002331
     atom   25 type  1   force =    -0.00000730   -0.00002563   -0.00001764
     atom   26 type  1   force =     0.00001220    0.00000819   -0.00002118
     atom   27 type  1   force =    -0.00000799   -0.00000411    0.00000081
     atom   28 type  1   force =     0.00000183   -0.00000123   -0.00000726
     atom   29 type  1   force =    -0.00000483   -0.00002458   -0.00001191
     atom   30 type  1   force =    -0.00000625    0.00000350   -0.00000001
     atom   31 type  1   force =    -0.00002176   -0.00000550   -0.00001483
     atom   32 type  1   force =     0.00001047   -0.00001360   -0.00000886
     atom   33 type  1   force =     0.00000493    0.00001103   -0.00000362
     atom   34 type  1   force =    -0.00001313    0.00003024    0.00000545
     atom   35 type  1   force =     0.00000049   -0.00000001    0.00000157
     atom   36 type  1   force =     0.00000870    0.00000542   -0.00000632
     atom   37 type  1   force =    -0.00001271    0.00002077   -0.00003835
     atom   38 type  1   force =     0.00004058   -0.00000610   -0.00002632
     atom   39 type  1   force =    -0.00000219    0.00003444   -0.00001439
     atom   40 type  1   force =     0.00005816    0.00001366   -0.00000463
     atom   41 type  1   force =     0.00004917   -0.00001182    0.00000096
     atom   42 type  1   force =     0.00001278   -0.00000992   -0.00003252
     atom   43 type  1   force =    -0.00000517    0.00002989    0.00000146
     atom   44 type  1   force =    -0.00001353    0.00000454    0.00002027
     atom   45 type  2   force =    -0.00009072    0.00007074   -0.00016551
     atom   46 type  2   force =     0.00002845    0.00028862   -0.00000946
     atom   47 type  2   force =     0.00008921    0.00002102   -0.00009465
     atom   48 type  2   force =    -0.00004303    0.00004634    0.00009543
     atom   49 type  2   force =     0.00011429    0.00010846   -0.00007558
     atom   50 type  2   force =    -0.00018416   -0.00001177    0.00004598
     atom   51 type  2   force =    -0.00000022   -0.00015732   -0.00008656
     atom   52 type  2   force =    -0.00015206    0.00018874   -0.00010168
     atom   53 type  2   force =     0.00003555    0.00000699    0.00020706
     atom   54 type  2   force =     0.00018758   -0.00002137    0.00014946
     atom   55 type  2   force =    -0.00016635    0.00004642    0.00004546
     atom   56 type  2   force =    -0.00012982   -0.00016644    0.00011779
     atom   57 type  2   force =     0.00003644   -0.00006496   -0.00012216
     atom   58 type  2   force =     0.00005211    0.00012810    0.00002160
     atom   59 type  2   force =    -0.00013965   -0.00007824   -0.00001069
     atom   60 type  2   force =    -0.00001004   -0.00009430   -0.00012293
     atom   61 type  2   force =     0.00002063    0.00000655    0.00001248
     atom   62 type  2   force =    -0.00006016   -0.00001476    0.00003765
     atom   63 type  2   force =     0.00017207    0.00000761   -0.00025851
     atom   64 type  2   force =     0.00016730    0.00017230   -0.00008381
     atom   65 type  2   force =     0.00023724   -0.00008478   -0.00015993
     atom   66 type  2   force =    -0.00006261    0.00016219    0.00011993

     Total force =     0.551945     Total SCF correction =     0.000978


     Computing stress (Cartesian axis) and pressure


     negative rho (up, down):  4.971E-01 0.000E+00
          total   stress  (Ry/bohr**3)                   (kbar)     P=       -2.93
  -0.00001965   0.00000023   0.00000014           -2.89        0.03        0.02
   0.00000023  -0.00001992   0.00000026            0.03       -2.93        0.04
   0.00000014   0.00000026  -0.00002019            0.02        0.04       -2.97


     init_run     :      7.45s CPU      7.91s WALL (       1 calls)
     electrons    :     74.93s CPU     80.16s WALL (       1 calls)
     forces       :      5.64s CPU      5.92s WALL (       1 calls)
     stress       :     16.67s CPU     17.00s WALL (       1 calls)

     Called by init_run:
     wfcinit      :      2.74s CPU      2.92s WALL (       1 calls)
     potinit      :      1.29s CPU      1.35s WALL (       1 calls)
     hinit0       :      0.96s CPU      1.03s WALL (       1 calls)

     Called by electrons:
     c_bands      :     50.30s CPU     53.15s WALL (      10 calls)
     sum_band     :     13.78s CPU     14.91s WALL (      10 calls)
     v_of_rho     :      6.57s CPU      7.09s WALL (      11 calls)
     newd         :      2.98s CPU      3.72s WALL (      11 calls)
     PAW_pot      :      1.05s CPU      1.06s WALL (      11 calls)
     mix_rho      :      1.01s CPU      1.09s WALL (      10 calls)

     Called by c_bands:
     init_us_2    :      0.67s CPU      0.69s WALL (      21 calls)
     init_us_2:cp :      0.67s CPU      0.69s WALL (      21 calls)
     regterg      :     49.38s CPU     52.20s WALL (      10 calls)

     Called by *egterg:
     rdiaghg      :      0.24s CPU      0.24s WALL (      31 calls)
     h_psi        :     44.28s CPU     46.73s WALL (      32 calls)
     s_psi        :      1.38s CPU      1.39s WALL (      32 calls)
     g_psi        :      0.14s CPU      0.14s WALL (      21 calls)

     Called by h_psi:
     h_psi:calbec :      1.40s CPU      1.41s WALL (      32 calls)
     vloc_psi     :     41.15s CPU     43.56s WALL (      32 calls)
     add_vuspsi   :      1.38s CPU      1.39s WALL (      32 calls)

     General routines
     calbec       :      2.10s CPU      2.12s WALL (      47 calls)
     fft          :      3.67s CPU      4.21s WALL (     119 calls)
     ffts         :      0.24s CPU      0.28s WALL (      10 calls)
     fftw         :     36.53s CPU     39.23s WALL (    2916 calls)

     Parallel routines

     PWSCF        :   1m44.82s CPU   1m51.16s WALL


   This run was terminated on:  22:30:56  27Mar2024            

=------------------------------------------------------------------------------=
   JOB DONE.
=------------------------------------------------------------------------------=
