
     Program PWSCF v.7.2 starts on 28Mar2024 at  0:33:35 

     This program is part of the open-source Quantum ESPRESSO suite
     for quantum simulation of materials; please cite
         "P. Giannozzi et al., J. Phys.:Condens. Matter 21 395502 (2009);
         "P. Giannozzi et al., J. Phys.:Condens. Matter 29 465901 (2017);
         "P. Giannozzi et al., J. Chem. Phys. 152 154105 (2020);
          URL http://www.quantum-espresso.org", 
     in publications or presentations arising from this work. More details at
     http://www.quantum-espresso.org/quote

     Parallel version (MPI), running on    32 processors

     MPI processes distributed on     1 nodes
     175028 MiB available memory on the printing compute node when the environment starts

     Reading input from pw-wt-463.in
Warning: card &CELL ignored
Warning: card / ignored

     Current dimensions of program PWSCF are:
     Max number of different atomic species (ntypx) = 10
     Max number of k-points (npk) =  40000
     Max angular momentum in pseudopotentials (lmaxx) =  4
     file O.pbe-n-kjpaw_psl.0.1.UPF: wavefunction(s)  2P renormalized

     IMPORTANT: XC functional enforced from input :
     Exchange-correlation= PBE
                           (   1   4   3   4   0   0   0)
     Any further DFT definition will be discarded
     Please, verify this is what you really want


     gamma-point specific algorithms are used

     R & G space division:  proc/nbgrp/npool/nimage =      32
     Subspace diagonalization in iterative solution of the eigenvalue problem:
     a serial algorithm will be used


     Parallelization info
     --------------------
     sticks:   dense  smooth     PW     G-vecs:    dense   smooth      PW
     Min        1707    1707    426               301015   301015   37634
     Max        1710    1710    428               301034   301034   37648
     Sum       54693   54693  13673              9632757  9632757 1204469

     Using Slab Decomposition



     bravais-lattice index     =            0
     lattice parameter (alat)  =      75.7119  a.u.
     unit-cell volume          =  434002.3113 (a.u.)^3
     number of atoms/cell      =           66
     number of atomic types    =            2
     number of electrons       =       176.00
     number of Kohn-Sham states=           88
     kinetic-energy cutoff     =      30.0000  Ry
     charge density cutoff     =     120.0000  Ry
     scf convergence threshold =      1.0E-06
     mixing beta               =       0.5000
     number of iterations used =            8  plain     mixing
     Exchange-correlation= PBE
                           (   1   4   3   4   0   0   0)

     celldm(1)=  75.711877  celldm(2)=   0.000000  celldm(3)=   0.000000
     celldm(4)=   0.000000  celldm(5)=   0.000000  celldm(6)=   0.000000

     crystal axes: (cart. coord. in units of alat)
               a(1) = (   1.000000   0.000000   0.000000 )  
               a(2) = (   0.000000   1.000000   0.000000 )  
               a(3) = (   0.000000   0.000000   1.000000 )  

     reciprocal axes: (cart. coord. in units 2 pi/alat)
               b(1) = (  1.000000  0.000000  0.000000 )  
               b(2) = (  0.000000  1.000000  0.000000 )  
               b(3) = (  0.000000  0.000000  1.000000 )  


     PseudoPot. # 1 for H  read from file:
     /share/pfaendtnergroup/rverma7/QE_PP/H.pbe-rrkjus_psl.1.0.0.UPF
     MD5 check sum: f52b6d4d1c606e5624b1dc7b2218f220
     Pseudo is Ultrasoft, Zval =  1.0
     Generated using "atomic" code by A. Dal Corso  v.5.1
     Using radial grid of  929 points,  2 beta functions with: 
                l(1) =   0
                l(2) =   0
     Q(r) pseudized with 0 coefficients 


     PseudoPot. # 2 for O  read from file:
     /share/pfaendtnergroup/rverma7/QE_PP/O.pbe-n-kjpaw_psl.0.1.UPF
     MD5 check sum: 0234752ac141de4415c5fc33072bef88
     Pseudo is Projector augmented-wave + core cor, Zval =  6.0
     Generated using "atomic" code by A. Dal Corso  v.5.0.99 svn rev. 10869
     Shape of augmentation charge: BESSEL
     Using radial grid of 1095 points,  4 beta functions with: 
                l(1) =   0
                l(2) =   0
                l(3) =   1
                l(4) =   1
     Q(r) pseudized with 0 coefficients 


     atomic species   valence    mass     pseudopotential
        H              1.00     1.00800     H ( 1.00)
        O              6.00    15.99900     O ( 1.00)

     No symmetry found



   Cartesian axes

     site n.     atom                  positions (alat units)
         1           H   tau(   1) = (   0.3752652   0.2266317   0.4444278  )
         2           H   tau(   2) = (   0.3397479   0.2159740   0.4536129  )
         3           H   tau(   3) = (   0.2774741   0.3036316   0.3751404  )
         4           H   tau(   4) = (   0.3033570   0.2918258   0.4080619  )
         5           H   tau(   5) = (   0.2460252   0.1537751   0.2835143  )
         6           H   tau(   6) = (   0.2647947   0.1775365   0.3120180  )
         7           H   tau(   7) = (   0.3573194   0.3060527   0.4003994  )
         8           H   tau(   8) = (   0.3546986   0.2824410   0.4296768  )
         9           H   tau(   9) = (   0.3025833   0.3396730   0.3415200  )
        10           H   tau(  10) = (   0.2860602   0.3709223   0.3595158  )
        11           H   tau(  11) = (   0.2014227   0.2153001   0.3342069  )
        12           H   tau(  12) = (   0.2134531   0.2072382   0.2985898  )
        13           H   tau(  13) = (   0.2953201   0.1725446   0.4748783  )
        14           H   tau(  14) = (   0.2899039   0.2051916   0.4539374  )
        15           H   tau(  15) = (   0.3465119   0.3017097   0.5256957  )
        16           H   tau(  16) = (   0.3255210   0.3096718   0.4914264  )
        17           H   tau(  17) = (   0.3151379   0.2656184   0.4765007  )
        18           H   tau(  18) = (   0.2804692   0.2494696   0.4628479  )
        19           H   tau(  19) = (   0.2691127   0.2938225   0.3121677  )
        20           H   tau(  20) = (   0.3060527   0.2880070   0.3304630  )
        21           H   tau(  21) = (   0.2218894   0.1662548   0.3402471  )
        22           H   tau(  22) = (   0.2374142   0.1599151   0.3752402  )
        23           H   tau(  23) = (   0.2257082   0.2588793   0.2940721  )
        24           H   tau(  24) = (   0.2353925   0.2888057   0.2693623  )
        25           H   tau(  25) = (   0.3614377   0.1779359   0.4134781  )
        26           H   tau(  26) = (   0.3944840   0.1539998   0.4114813  )
        27           H   tau(  27) = (   0.2476975   0.2645451   0.4229128  )
        28           H   tau(  28) = (   0.2279795   0.2333458   0.4398103  )
        29           H   tau(  29) = (   0.2835392   0.3195308   0.4467490  )
        30           H   tau(  30) = (   0.2918258   0.3512043   0.4660177  )
        31           H   tau(  31) = (   0.2899538   0.1853738   0.3560714  )
        32           H   tau(  32) = (   0.3019843   0.2166230   0.3374267  )
        33           H   tau(  33) = (   0.1989267   0.1926120   0.3978535  )
        34           H   tau(  34) = (   0.1723699   0.2132535   0.4172719  )
        35           H   tau(  35) = (   0.3877948   0.3540746   0.3764383  )
        36           H   tau(  36) = (   0.3482591   0.3429926   0.3771621  )
        37           H   tau(  37) = (   0.3363784   0.2617996   0.3767877  )
        38           H   tau(  38) = (   0.3522526   0.2380881   0.3477349  )
        39           H   tau(  39) = (   0.2806939   0.1671284   0.4128791  )
        40           H   tau(  40) = (   0.2782728   0.1318358   0.3979783  )
        41           H   tau(  41) = (   0.4161238   0.2705603   0.4585049  )
        42           H   tau(  42) = (   0.3784600   0.2768002   0.4760514  )
        43           H   tau(  43) = (   0.3717459   0.1815799   0.3653313  )
        44           H   tau(  44) = (   0.3451891   0.1911893   0.3386996  )
        45           O   tau(  45) = (   0.3605391   0.2075877   0.4423312  )
        46           O   tau(  46) = (   0.2773743   0.2986397   0.3995258  )
        47           O   tau(  47) = (   0.2412080   0.1692749   0.3023587  )
        48           O   tau(  48) = (   0.3410458   0.2878073   0.4115063  )
        49           O   tau(  49) = (   0.3097716   0.3601647   0.3557469  )
        50           O   tau(  50) = (   0.2025708   0.2259079   0.3122176  )
        51           O   tau(  51) = (   0.2895295   0.1800824   0.4524897  )
        52           O   tau(  52) = (   0.3473605   0.3001123   0.4997379  )
        53           O   tau(  53) = (   0.3027081   0.2440534   0.4733558  )
        54           O   tau(  54) = (   0.2889305   0.3056034   0.3260452  )
        55           O   tau(  55) = (   0.2180457   0.1720953   0.3640834  )
        56           O   tau(  56) = (   0.2418819   0.2796206   0.2913016  )
        57           O   tau(  57) = (   0.3723200   0.1584675   0.3995008  )
        58           O   tau(  58) = (   0.2455759   0.2502434   0.4437040  )
        59           O   tau(  59) = (   0.2910271   0.3268688   0.4689879  )
        60           O   tau(  60) = (   0.2956945   0.1918133   0.3320604  )
        61           O   tau(  61) = (   0.1961812   0.2126295   0.4137527  )
        62           O   tau(  62) = (   0.3716710   0.3356795   0.3844253  )
        63           O   tau(  63) = (   0.3318108   0.2535630   0.3533758  )
        64           O   tau(  64) = (   0.2757269   0.1553476   0.3917883  )
        65           O   tau(  65) = (   0.3910396   0.2659678   0.4570822  )
        66           O   tau(  66) = (   0.3696493   0.1968801   0.3447148  )

     number of k points=     1
                       cart. coord. in units 2pi/alat
        k(    1) = (   0.0000000   0.0000000   0.0000000), wk =   2.0000000

     Dense  grid:  4816379 G-vectors     FFT dimensions: ( 270, 270, 270)

     Estimated max dynamical RAM per process >     612.29 MB

     Estimated total dynamical RAM >      19.13 GB

     Check: negative core charge=   -0.000006

     Initial potential from superposition of free atoms

     starting charge     175.9995, renormalised to     176.0000

     negative rho (up, down):  3.709E-01 0.000E+00
     Starting wfcs are  132 randomized atomic wfcs
     Checking if some PAW data can be deallocated... 

     total cpu time spent up to now is        8.4 secs

     Self-consistent Calculation

     iteration #  1     ecut=    30.00 Ry     beta= 0.50
     Davidson diagonalization with overlap
     ethr =  1.00E-02,  avg # of iterations =  2.0

     negative rho (up, down):  4.394E-01 0.000E+00

     total cpu time spent up to now is       16.5 secs

     total energy              =    -965.81018748 Ry
     estimated scf accuracy    <       6.87800801 Ry

     iteration #  2     ecut=    30.00 Ry     beta= 0.50
     Davidson diagonalization with overlap
     ethr =  3.91E-03,  avg # of iterations =  2.0

     negative rho (up, down):  4.607E-01 0.000E+00

     total cpu time spent up to now is       24.9 secs

     total energy              =    -967.73274335 Ry
     estimated scf accuracy    <       0.98233766 Ry

     iteration #  3     ecut=    30.00 Ry     beta= 0.50
     Davidson diagonalization with overlap
     ethr =  5.58E-04,  avg # of iterations =  2.0

     negative rho (up, down):  5.078E-01 0.000E+00

     total cpu time spent up to now is       32.3 secs

     total energy              =    -967.78132589 Ry
     estimated scf accuracy    <       0.13076770 Ry

     iteration #  4     ecut=    30.00 Ry     beta= 0.50
     Davidson diagonalization with overlap
     ethr =  7.43E-05,  avg # of iterations =  3.0

     negative rho (up, down):  5.071E-01 0.000E+00

     total cpu time spent up to now is       41.0 secs

     total energy              =    -967.80552152 Ry
     estimated scf accuracy    <       0.04083684 Ry

     iteration #  5     ecut=    30.00 Ry     beta= 0.50
     Davidson diagonalization with overlap
     ethr =  2.32E-05,  avg # of iterations =  2.0

     negative rho (up, down):  5.061E-01 0.000E+00

     total cpu time spent up to now is       47.9 secs

     total energy              =    -967.80633074 Ry
     estimated scf accuracy    <       0.00746445 Ry

     iteration #  6     ecut=    30.00 Ry     beta= 0.50
     Davidson diagonalization with overlap
     ethr =  4.24E-06,  avg # of iterations =  2.0

     negative rho (up, down):  5.052E-01 0.000E+00

     total cpu time spent up to now is       55.0 secs

     total energy              =    -967.80617114 Ry
     estimated scf accuracy    <       0.00192876 Ry

     iteration #  7     ecut=    30.00 Ry     beta= 0.50
     Davidson diagonalization with overlap
     ethr =  1.10E-06,  avg # of iterations =  2.0

     negative rho (up, down):  5.049E-01 0.000E+00

     total cpu time spent up to now is       63.0 secs

     total energy              =    -967.80654282 Ry
     estimated scf accuracy    <       0.00005226 Ry

     iteration #  8     ecut=    30.00 Ry     beta= 0.50
     Davidson diagonalization with overlap
     ethr =  2.97E-08,  avg # of iterations =  3.0

     negative rho (up, down):  5.049E-01 0.000E+00

     total cpu time spent up to now is       72.1 secs

     total energy              =    -967.80657000 Ry
     estimated scf accuracy    <       0.00002343 Ry

     iteration #  9     ecut=    30.00 Ry     beta= 0.50
     Davidson diagonalization with overlap
     ethr =  1.33E-08,  avg # of iterations =  1.0

     negative rho (up, down):  5.050E-01 0.000E+00

     total cpu time spent up to now is       78.6 secs

     total energy              =    -967.80656735 Ry
     estimated scf accuracy    <       0.00000921 Ry

     iteration # 10     ecut=    30.00 Ry     beta= 0.50
     Davidson diagonalization with overlap
     ethr =  5.24E-09,  avg # of iterations =  2.0

     negative rho (up, down):  5.050E-01 0.000E+00

     total cpu time spent up to now is       86.6 secs

     End of self-consistent calculation

          k = 0.0000 0.0000 0.0000 (602235 PWs)   bands (ev):

   -25.9808 -25.8866 -25.8258 -25.7116 -25.4565 -25.4442 -25.3394 -25.2487
   -25.2032 -25.0394 -24.9101 -24.8530 -24.7270 -24.7056 -24.3085 -24.2924
   -24.2630 -24.2146 -24.0452 -23.7389 -23.5189 -23.3830 -14.0861 -13.8128
   -13.6489 -13.5159 -13.2851 -13.2752 -13.2035 -12.8796 -12.8285 -12.7386
   -12.6689 -12.6461 -12.4824 -12.4252 -12.2928 -12.2667 -12.1924 -12.1570
   -12.0020 -11.8120 -11.6410 -11.1365 -11.0017 -10.7763 -10.6389 -10.3963
   -10.2913 -10.1939  -9.8903  -9.8103  -9.7573  -9.7092  -9.4998  -9.4286
    -9.1322  -9.0457  -8.9533  -8.8752  -8.7115  -8.4848  -8.2389  -8.0734
    -7.9826  -7.9520  -7.8098  -7.7506  -7.7171  -7.6962  -7.5633  -7.4987
    -7.4130  -7.3649  -7.3254  -7.2787  -7.1213  -7.0068  -6.9340  -6.8716
    -6.7524  -6.7191  -6.6266  -6.5882  -6.5704  -6.4788  -6.0862  -6.0183

     highest occupied level (ev):    -6.0183

!    total energy              =    -967.80656877 Ry
     estimated scf accuracy    <       0.00000026 Ry

     The total energy is the sum of the following terms:
     one-electron contribution =   -5878.44045595 Ry
     hartree contribution      =    2974.90475045 Ry
     xc contribution           =    -193.83269628 Ry
     ewald contribution        =    2338.86938515 Ry
     one-center paw contrib.   =    -209.30755213 Ry

     convergence has been achieved in  10 iterations

     negative rho (up, down):  5.050E-01 0.000E+00

     Forces acting on atoms (cartesian axes, Ry/au):

     atom    1 type  1   force =     0.02990175    0.02907250    0.00136504
     atom    2 type  1   force =     0.01711751   -0.01252200   -0.01574022
     atom    3 type  1   force =     0.01453917   -0.00781158    0.01372502
     atom    4 type  1   force =    -0.10089381    0.03635196   -0.06174310
     atom    5 type  1   force =    -0.00365936    0.01848065    0.02631997
     atom    6 type  1   force =    -0.05003240   -0.00838660   -0.02526349
     atom    7 type  1   force =    -0.04466231   -0.04281091    0.02286334
     atom    8 type  1   force =     0.05331664   -0.04313712    0.08341649
     atom    9 type  1   force =     0.00707826    0.02528971    0.01363380
     atom   10 type  1   force =     0.10231704   -0.04015034   -0.00514854
     atom   11 type  1   force =     0.00630889    0.00784201    0.01504181
     atom   12 type  1   force =    -0.01670268    0.02784479    0.03216048
     atom   13 type  1   force =     0.00119429   -0.00188745    0.00202386
     atom   14 type  1   force =     0.00331686   -0.03377611    0.00639851
     atom   15 type  1   force =    -0.00160364   -0.00866322   -0.09815409
     atom   16 type  1   force =     0.01112321    0.00976117    0.00092591
     atom   17 type  1   force =    -0.02291788   -0.04079724   -0.00010646
     atom   18 type  1   force =    -0.01283328    0.00731575   -0.00207026
     atom   19 type  1   force =     0.05335384    0.03311855    0.03482025
     atom   20 type  1   force =    -0.00778091    0.00156048   -0.00282652
     atom   21 type  1   force =    -0.00730950   -0.00037900   -0.00159612
     atom   22 type  1   force =    -0.02087590    0.03067380   -0.00413029
     atom   23 type  1   force =     0.04470382    0.05312746    0.02644335
     atom   24 type  1   force =     0.01231577    0.00187768    0.01575688
     atom   25 type  1   force =     0.04207473   -0.04421099   -0.01345020
     atom   26 type  1   force =    -0.06588388    0.01796427   -0.03314414
     atom   27 type  1   force =    -0.00016531   -0.02173184    0.02623830
     atom   28 type  1   force =    -0.00362627    0.00274519   -0.01655540
     atom   29 type  1   force =    -0.00642103   -0.01171518   -0.01694655
     atom   30 type  1   force =     0.00355174   -0.00505507    0.00729529
     atom   31 type  1   force =     0.00623627   -0.01732850   -0.04309602
     atom   32 type  1   force =    -0.01445104   -0.04653583   -0.02693468
     atom   33 type  1   force =     0.00924094    0.04425353    0.01828499
     atom   34 type  1   force =    -0.02547609    0.00652241    0.01064793
     atom   35 type  1   force =    -0.05405122   -0.06267066    0.02552342
     atom   36 type  1   force =     0.03170462    0.01572289   -0.00172064
     atom   37 type  1   force =    -0.00406708   -0.01137737   -0.02119262
     atom   38 type  1   force =    -0.04684440    0.02945080    0.02441686
     atom   39 type  1   force =     0.00288183    0.00490122    0.02851924
     atom   40 type  1   force =     0.00843721    0.00034466   -0.00572913
     atom   41 type  1   force =    -0.07914154   -0.00334865    0.00705145
     atom   42 type  1   force =     0.02569302    0.00048247   -0.00493669
     atom   43 type  1   force =     0.01589958    0.01939303   -0.02121409
     atom   44 type  1   force =     0.06538262    0.00866026    0.00162546
     atom   45 type  2   force =    -0.05611156   -0.01932200    0.01817784
     atom   46 type  2   force =     0.07099531   -0.03093933    0.05912949
     atom   47 type  2   force =     0.05671055   -0.00494219   -0.02138659
     atom   48 type  2   force =     0.00649413    0.06252931   -0.09207666
     atom   49 type  2   force =    -0.09439257    0.02048834   -0.00504802
     atom   50 type  2   force =     0.01711680   -0.02787110   -0.05647359
     atom   51 type  2   force =    -0.00703018    0.03051634   -0.00829516
     atom   52 type  2   force =    -0.01042958    0.00604360    0.08573345
     atom   53 type  2   force =     0.03933374    0.02633513    0.01178903
     atom   54 type  2   force =    -0.02959059   -0.04320616   -0.01820191
     atom   55 type  2   force =     0.00792420   -0.03007432    0.01655073
     atom   56 type  2   force =    -0.07218140   -0.06279000   -0.03513361
     atom   57 type  2   force =     0.02658182    0.01925470    0.05365963
     atom   58 type  2   force =     0.00478626    0.02949162   -0.02420920
     atom   59 type  2   force =     0.00219690    0.01534351    0.00738437
     atom   60 type  2   force =     0.01561203    0.06611510    0.08140471
     atom   61 type  2   force =     0.01542876   -0.04592332   -0.02911558
     atom   62 type  2   force =     0.00718639    0.07924589   -0.04348091
     atom   63 type  2   force =     0.04113299   -0.03125113   -0.01597606
     atom   64 type  2   force =     0.00174782   -0.01681601   -0.01819117
     atom   65 type  2   force =     0.05324524    0.01807322    0.00897026
     atom   66 type  2   force =    -0.07504716   -0.02876274    0.00199054
     The non-local contrib.  to forces
     atom    1 type  1   force =    -0.07089575   -0.08880071   -0.00980459
     atom    2 type  1   force =     0.08358214   -0.03156824   -0.04460251
     atom    3 type  1   force =     0.00284099   -0.02065114    0.09978147
     atom    4 type  1   force =    -0.04982795    0.01437412   -0.01978461
     atom    5 type  1   force =    -0.01753053    0.06388141    0.07799989
     atom    6 type  1   force =    -0.06154788   -0.02319224   -0.02660814
     atom    7 type  1   force =    -0.04251032   -0.04525803    0.02854440
     atom    8 type  1   force =    -0.07625635    0.03014697   -0.09966816
     atom    9 type  1   force =     0.02140208    0.06559310    0.04632773
     atom   10 type  1   force =     0.07316816   -0.03486659   -0.01197481
     atom   11 type  1   force =     0.00661771    0.04640140   -0.10028255
     atom   12 type  1   force =    -0.03973457    0.06732915    0.05105699
     atom   13 type  1   force =    -0.02637166    0.03667994   -0.10219156
     atom   14 type  1   force =    -0.00068818   -0.09908852   -0.00339746
     atom   15 type  1   force =     0.00045422   -0.00472310   -0.08664964
     atom   16 type  1   force =     0.08233665   -0.03687197    0.03431988
     atom   17 type  1   force =    -0.05057623   -0.08338831   -0.01457927
     atom   18 type  1   force =     0.08370757   -0.01809208    0.03808533
     atom   19 type  1   force =     0.05026812    0.02795376    0.03431132
     atom   20 type  1   force =    -0.07093959    0.07068257   -0.01925907
     atom   21 type  1   force =    -0.01474441    0.02319256    0.09762679
     atom   22 type  1   force =    -0.06910518    0.04302129   -0.04164131
     atom   23 type  1   force =     0.04828432    0.06257697   -0.01056381
     atom   24 type  1   force =     0.02706075   -0.04054503    0.09414875
     atom   25 type  1   force =     0.03574868   -0.05926844   -0.04142699
     atom   26 type  1   force =    -0.07956988    0.01831715   -0.04158484
     atom   27 type  1   force =    -0.01040882   -0.05674190    0.07819132
     atom   28 type  1   force =     0.07557960    0.07280253    0.01496268
     atom   29 type  1   force =     0.03387388    0.03417426    0.09757070
     atom   30 type  1   force =    -0.00350033   -0.10768043    0.01113109
     atom   31 type  1   force =     0.02122537    0.02543448   -0.08838568
     atom   32 type  1   force =    -0.02136841   -0.08085159   -0.01707259
     atom   33 type  1   force =    -0.01225569    0.06944429    0.05650884
     atom   34 type  1   force =     0.11347367   -0.00497754   -0.01777585
     atom   35 type  1   force =    -0.05803999   -0.06343200    0.02732543
     atom   36 type  1   force =     0.08631011   -0.02481360    0.02551214
     atom   37 type  1   force =    -0.01571665   -0.03242917   -0.08882259
     atom   38 type  1   force =    -0.06346887    0.04877220    0.01926920
     atom   39 type  1   force =    -0.02137946   -0.05237739   -0.08947998
     atom   40 type  1   force =    -0.01097838    0.10613428   -0.02589387
     atom   41 type  1   force =    -0.09212296   -0.01461963   -0.00209795
     atom   42 type  1   force =     0.05226393   -0.04094154   -0.07189188
     atom   43 type  1   force =    -0.00891703    0.05148124   -0.06815534
     atom   44 type  1   force =     0.08339086    0.01925555    0.02213503
     atom   45 type  2   force =    -0.39411365    1.78084700    0.72815913
     atom   46 type  2   force =     1.31510626   -0.01860758   -1.13511405
     atom   47 type  2   force =     1.55160268   -0.70319195   -0.83933830
     atom   48 type  2   force =     1.51603851    0.51090484    0.68290019
     atom   49 type  2   force =    -1.91420141   -0.51163870   -0.41744416
     atom   50 type  2   force =     0.77293856   -1.85542041    0.61592628
     atom   51 type  2   force =     0.43228119    1.05405501    1.65720612
     atom   52 type  2   force =    -1.45419109    0.55909245    1.23917401
     atom   53 type  2   force =    -0.35812744    1.74863665   -0.59549175
     atom   54 type  2   force =     0.15474698   -1.62274230   -0.26566843
     atom   55 type  2   force =     1.27528793   -1.08545191   -0.77456002
     atom   56 type  2   force =    -1.23548632   -0.44798334   -1.38332374
     atom   57 type  2   force =     0.99903566    0.98361510    1.54493042
     atom   58 type  2   force =    -0.84015089   -0.28388340   -1.56919921
     atom   59 type  2   force =    -0.23085764    1.25533761   -1.72458949
     atom   60 type  2   force =    -0.19685286    1.07398062    1.73388259
     atom   61 type  2   force =    -1.64474378   -1.24932235   -0.58841146
     atom   62 type  2   force =    -0.42167036    1.58664133   -0.91110989
     atom   63 type  2   force =     1.39001108   -0.40260391    1.06873971
     atom   64 type  2   force =     0.39120674   -0.94287475    1.72385914
     atom   65 type  2   force =     0.95940381    1.05841991    1.38732801
     atom   66 type  2   force =    -1.57960021   -1.08213414    0.88699666
     The ionic contribution  to forces
     atom    1 type  1   force =     3.96281716    1.26516063    1.03533117
     atom    2 type  1   force =    -1.26752408   -0.27074687    2.75274209
     atom    3 type  1   force =    -1.56616656    1.94030008   -3.02802283
     atom    4 type  1   force =     0.72348529    0.60568645    0.82551866
     atom    5 type  1   force =     0.16096435   -3.59431600   -4.42767558
     atom    6 type  1   force =     1.65895817   -0.75994976   -1.45379684
     atom    7 type  1   force =     2.89602727    2.21429689   -0.73607883
     atom    8 type  1   force =     3.26263748    0.06745419    3.06994307
     atom    9 type  1   force =    -0.47254220    0.58039219   -2.64297478
     atom   10 type  1   force =    -3.24723803    3.69061408   -0.01162238
     atom   11 type  1   force =    -2.42709282   -0.98146491    2.18992098
     atom   12 type  1   force =    -0.56682607   -2.06566636   -3.57176335
     atom   13 type  1   force =     0.55467690   -3.00462541    5.18338940
     atom   14 type  1   force =    -0.63468814    1.27895446    1.48557536
     atom   15 type  1   force =     0.57227478    0.92089965    5.28555761
     atom   16 type  1   force =    -1.89055158    2.42659021    1.39230903
     atom   17 type  1   force =     1.30834519    2.44902771    2.52815521
     atom   18 type  1   force =    -2.94816684    0.65390446    1.10983110
     atom   19 type  1   force =    -1.74780057    0.38531495   -2.43709281
     atom   20 type  1   force =     2.40535085   -1.14038357   -1.60216824
     atom   21 type  1   force =    -1.49137523   -2.54911220   -3.12510791
     atom   22 type  1   force =     0.32667453   -3.32384084    1.21876058
     atom   23 type  1   force =    -2.57305056   -1.09381090   -1.58674308
     atom   24 type  1   force =    -1.67706441    2.19456530   -4.94763428
     atom   25 type  1   force =     0.22352508   -0.18964794    1.40021869
     atom   26 type  1   force =     4.54197742   -2.35679451    1.71162408
     atom   27 type  1   force =    -1.79811535    2.24412676   -1.82256351
     atom   28 type  1   force =    -3.84121902   -1.98565583    1.15703881
     atom   29 type  1   force =    -2.10514379    1.11243854   -1.49210089
     atom   30 type  1   force =    -0.46193078    5.59631485    0.86361348
     atom   31 type  1   force =    -0.35876844   -1.76556753    1.77506149
     atom   32 type  1   force =     0.57628522    2.08542985   -1.16492369
     atom   33 type  1   force =    -2.05144911   -2.76946722   -0.76628930
     atom   34 type  1   force =    -5.76738247    0.00254362    1.27749494
     atom   35 type  1   force =     3.71755990    3.81808063   -1.38753238
     atom   36 type  1   force =    -1.13756282    2.88042171   -1.17849751
     atom   37 type  1   force =     1.59180963    0.69896711    1.48639295
     atom   38 type  1   force =     3.70454291   -0.97006156   -2.14148021
     atom   39 type  1   force =     0.16202030   -0.48365609    2.77472303
     atom   40 type  1   force =     0.17513350   -5.94205302    1.08942612
     atom   41 type  1   force =     5.47958339    0.84322983    0.95398054
     atom   42 type  1   force =     0.77625631    1.52176779    3.74644538
     atom   43 type  1   force =     2.17530760   -2.59798985    0.74613776
     atom   44 type  1   force =    -0.99989558   -1.97232997   -2.41338133
     atom   45 type  2   force =     9.74814927   -9.95138887    5.76829971
     atom   46 type  2   force =   -10.64996913    8.29356084    1.98155866
     atom   47 type  2   force =    -6.19292292   -8.49086039  -11.39273050
     atom   48 type  2   force =     4.29319190    4.32472122    0.32658786
     atom   49 type  2   force =     2.75491334   16.33843000   -3.76156155
     atom   50 type  2   force =   -13.31394765    4.36305857   -8.18947162
     atom   51 type  2   force =    -3.22241568  -12.65491374    7.70974594
     atom   52 type  2   force =     7.66005806    5.59662665   12.36199229
     atom   53 type  2   force =    -0.51327517   -4.12244869   15.01636024
     atom   54 type  2   force =    -1.62271856    9.99662651  -10.46602150
     atom   55 type  2   force =   -13.25428395   -7.29072985    0.65499044
     atom   56 type  2   force =    -4.22955885    5.65798115   -9.42426936
     atom   57 type  2   force =     7.98074198  -14.36470096   -1.49562677
     atom   58 type  2   force =   -10.15104999    2.53059589   10.04872275
     atom   59 type  2   force =    -4.75422835   10.07113875   12.00674000
     atom   60 type  2   force =     2.87437078   -7.42175132  -12.33795184
     atom   61 type  2   force =   -11.07213438    0.48026766    5.63767336
     atom   62 type  2   force =    12.83215328    9.04965933   -1.55750291
     atom   63 type  2   force =     4.14263886    1.63367454  -10.41286634
     atom   64 type  2   force =    -1.61496095  -12.40549672   -1.33607533
     atom   65 type  2   force =    13.91807340    0.23689106    4.49084529
     atom   66 type  2   force =    14.46251596   -3.53028322  -10.75118057
     The local contribution  to forces
     atom    1 type  1   force =    -3.86202075   -1.14728077   -1.02418797
     atom    2 type  1   force =     1.20103166    0.28978445   -2.72390167
     atom    3 type  1   force =     1.57785325   -1.92748806    2.94190828
     atom    4 type  1   force =    -0.77457313   -0.58373654   -0.86751478
     atom    5 type  1   force =    -0.14710383    3.54888831    4.37596424
     atom    6 type  1   force =    -1.64746429    0.77472238    1.45510451
     atom    7 type  1   force =    -2.89816523   -2.21186211    0.73035698
     atom    8 type  1   force =    -3.13304732   -0.14077128   -2.88687000
     atom    9 type  1   force =     0.45817250   -0.62077399    2.61021720
     atom   10 type  1   force =     3.27632115   -3.69591415    0.01841662
     atom   11 type  1   force =     2.42677772    0.94286728   -2.07462624
     atom   12 type  1   force =     0.58985681    2.02613512    3.55283199
     atom   13 type  1   force =    -0.52711960    2.96603016   -5.07919873
     atom   14 type  1   force =     0.63868458   -1.21366225   -1.47581378
     atom   15 type  1   force =    -0.57435022   -0.92486651   -5.29707957
     atom   16 type  1   force =     1.81930980   -2.37998354   -1.42574578
     atom   17 type  1   force =    -1.28069007   -2.40644516   -2.51371857
     atom   18 type  1   force =     2.85161609   -0.62851687   -1.15002778
     atom   19 type  1   force =     1.75089260   -0.38017687    2.43758043
     atom   20 type  1   force =    -2.34221590    1.07123443    1.61856615
     atom   21 type  1   force =     1.49881709    2.52549770    3.02579916
     atom   22 type  1   force =    -0.27841808    3.31143886   -1.18127630
     atom   23 type  1   force =     2.56945612    1.08432580    1.62371326
     atom   24 type  1   force =     1.66230570   -2.15216572    4.86919415
     atom   25 type  1   force =    -0.21720755    0.20467710   -1.37229036
     atom   26 type  1   force =    -4.52829360    2.35641585   -1.70321841
     atom   27 type  1   force =     1.80834349   -2.20913583    1.77054553
     atom   28 type  1   force =     3.76198122    1.91555660   -1.18860761
     atom   29 type  1   force =     2.06483552   -1.15835275    1.37753894
     atom   30 type  1   force =     0.46897080   -5.49371074   -0.86749268
     atom   31 type  1   force =     0.34376207    1.72278281   -1.72979928
     atom   32 type  1   force =    -0.56938224   -2.05112797    1.15503935
     atom   33 type  1   force =     2.07292082    2.74424867    0.72803880
     atom   34 type  1   force =     5.62840893    0.00892626   -1.24910598
     atom   35 type  1   force =    -3.71358532   -3.81735164    1.38569692
     atom   36 type  1   force =     1.08296474   -2.83992507    1.15124158
     atom   37 type  1   force =    -1.58017174   -0.67795243   -1.41881893
     atom   38 type  1   force =    -3.68793661    0.95072126    2.14660075
     atom   39 type  1   force =    -0.13777062    0.54090526   -2.65675426
     atom   40 type  1   force =    -0.15573124    5.83622704   -1.06928906
     atom   41 type  1   force =    -5.46661674   -0.83198564   -0.94486486
     atom   42 type  1   force =    -0.80283800   -1.48037675   -3.67953399
     atom   43 type  1   force =    -2.15049942    2.56587251   -0.69922821
     atom   44 type  1   force =     0.98187472    1.96170251    2.39284698
     atom   45 type  2   force =    -9.41444105    8.16857899   -6.47113769
     atom   46 type  2   force =     9.41917926   -8.30552844   -0.79867857
     atom   47 type  2   force =     4.71329947    9.18201609   12.20179351
     atom   48 type  2   force =    -5.78866173   -4.76798586   -1.09604835
     atom   49 type  2   force =    -0.95523613  -15.81066872    4.17013170
     atom   50 type  2   force =    12.56586216   -2.55371623    7.52329116
     atom   51 type  2   force =     2.78699759   11.64149498   -9.35834405
     atom   52 type  2   force =    -6.23011681   -6.14422835  -13.50114389
     atom   53 type  2   force =     0.90852514    2.41757911  -14.41405462
     atom   54 type  2   force =     1.44004093   -8.43352811   10.71029755
     atom   55 type  2   force =    11.99907634    8.33528499    0.12817564
     atom   56 type  2   force =     5.37961800   -5.27771281   10.75838751
     atom   57 type  2   force =    -8.94269724   13.41015638    0.02113168
     atom   58 type  2   force =    10.98672164   -2.21973889   -8.51928759
     atom   59 type  2   force =     4.98593931  -11.29863055  -10.29150798
     atom   60 type  2   force =    -2.66277955    6.42457445   10.70220963
     atom   61 type  2   force =    12.71552826    0.71068122   -5.08389943
     atom   62 type  2   force =   -12.40628458  -10.54052526    2.41611436
     atom   63 type  2   force =    -5.47744996   -1.26698490    9.33916486
     atom   64 type  2   force =     1.22964079   13.32184621   -0.38899075
     atom   65 type  2   force =   -14.81339807   -1.26584153   -5.85527342
     atom   66 type  2   force =   -12.97366093    4.57283865    9.87361063
     The core correction contribution to forces
     atom    1 type  1   force =     0.00000000    0.00000000    0.00000000
     atom    2 type  1   force =     0.00000000    0.00000000    0.00000000
     atom    3 type  1   force =     0.00000000    0.00000000    0.00000000
     atom    4 type  1   force =     0.00000000    0.00000000    0.00000000
     atom    5 type  1   force =     0.00000000    0.00000000    0.00000000
     atom    6 type  1   force =     0.00000000    0.00000000    0.00000000
     atom    7 type  1   force =     0.00000000    0.00000000    0.00000000
     atom    8 type  1   force =     0.00000000    0.00000000    0.00000000
     atom    9 type  1   force =     0.00000000    0.00000000    0.00000000
     atom   10 type  1   force =     0.00000000    0.00000000    0.00000000
     atom   11 type  1   force =     0.00000000    0.00000000    0.00000000
     atom   12 type  1   force =     0.00000000    0.00000000    0.00000000
     atom   13 type  1   force =     0.00000000    0.00000000    0.00000000
     atom   14 type  1   force =     0.00000000    0.00000000    0.00000000
     atom   15 type  1   force =     0.00000000    0.00000000    0.00000000
     atom   16 type  1   force =     0.00000000    0.00000000    0.00000000
     atom   17 type  1   force =     0.00000000    0.00000000    0.00000000
     atom   18 type  1   force =     0.00000000    0.00000000    0.00000000
     atom   19 type  1   force =     0.00000000    0.00000000    0.00000000
     atom   20 type  1   force =     0.00000000    0.00000000    0.00000000
     atom   21 type  1   force =     0.00000000    0.00000000    0.00000000
     atom   22 type  1   force =     0.00000000    0.00000000    0.00000000
     atom   23 type  1   force =     0.00000000    0.00000000    0.00000000
     atom   24 type  1   force =     0.00000000    0.00000000    0.00000000
     atom   25 type  1   force =     0.00000000    0.00000000    0.00000000
     atom   26 type  1   force =     0.00000000    0.00000000    0.00000000
     atom   27 type  1   force =     0.00000000    0.00000000    0.00000000
     atom   28 type  1   force =     0.00000000    0.00000000    0.00000000
     atom   29 type  1   force =     0.00000000    0.00000000    0.00000000
     atom   30 type  1   force =     0.00000000    0.00000000    0.00000000
     atom   31 type  1   force =     0.00000000    0.00000000    0.00000000
     atom   32 type  1   force =     0.00000000    0.00000000    0.00000000
     atom   33 type  1   force =     0.00000000    0.00000000    0.00000000
     atom   34 type  1   force =     0.00000000    0.00000000    0.00000000
     atom   35 type  1   force =     0.00000000    0.00000000    0.00000000
     atom   36 type  1   force =     0.00000000    0.00000000    0.00000000
     atom   37 type  1   force =     0.00000000    0.00000000    0.00000000
     atom   38 type  1   force =     0.00000000    0.00000000    0.00000000
     atom   39 type  1   force =     0.00000000    0.00000000    0.00000000
     atom   40 type  1   force =     0.00000000    0.00000000    0.00000000
     atom   41 type  1   force =     0.00000000    0.00000000    0.00000000
     atom   42 type  1   force =     0.00000000    0.00000000    0.00000000
     atom   43 type  1   force =     0.00000000    0.00000000    0.00000000
     atom   44 type  1   force =     0.00000000    0.00000000    0.00000000
     atom   45 type  2   force =     0.00425438   -0.01716863   -0.00706185
     atom   46 type  2   force =    -0.01332942   -0.00037811    0.01119886
     atom   47 type  2   force =    -0.01522806    0.00700934    0.00882058
     atom   48 type  2   force =    -0.01383869   -0.00511864   -0.00543671
     atom   49 type  2   force =     0.01983676    0.00431483    0.00374754
     atom   50 type  2   force =    -0.00769939    0.01801149   -0.00618019
     atom   51 type  2   force =    -0.00388308   -0.01011475   -0.01683838
     atom   52 type  2   force =     0.01369465   -0.00544374   -0.01433607
     atom   53 type  2   force =     0.00217169   -0.01731673    0.00489819
     atom   54 type  2   force =    -0.00165971    0.01627662    0.00314887
     atom   55 type  2   force =    -0.01199671    0.01066254    0.00776571
     atom   56 type  2   force =     0.01324332    0.00491716    0.01400554
     atom   57 type  2   force =    -0.01044526   -0.00976133   -0.01680027
     atom   58 type  2   force =     0.00916197    0.00249197    0.01532564
     atom   59 type  2   force =     0.00131829   -0.01247412    0.01659789
     atom   60 type  2   force =     0.00077406   -0.01066238   -0.01663310
     atom   61 type  2   force =     0.01662719    0.01239096    0.00548127
     atom   62 type  2   force =     0.00295396   -0.01653799    0.00897644
     atom   63 type  2   force =    -0.01404761    0.00466770   -0.01098682
     atom   64 type  2   force =    -0.00415630    0.00966652   -0.01690869
     atom   65 type  2   force =    -0.01089917   -0.01138227   -0.01390489
     atom   66 type  2   force =     0.01571291    0.01066689   -0.00733468
     The Hubbard contrib.    to forces
     atom    1 type  1   force =     0.00000000    0.00000000    0.00000000
     atom    2 type  1   force =     0.00000000    0.00000000    0.00000000
     atom    3 type  1   force =     0.00000000    0.00000000    0.00000000
     atom    4 type  1   force =     0.00000000    0.00000000    0.00000000
     atom    5 type  1   force =     0.00000000    0.00000000    0.00000000
     atom    6 type  1   force =     0.00000000    0.00000000    0.00000000
     atom    7 type  1   force =     0.00000000    0.00000000    0.00000000
     atom    8 type  1   force =     0.00000000    0.00000000    0.00000000
     atom    9 type  1   force =     0.00000000    0.00000000    0.00000000
     atom   10 type  1   force =     0.00000000    0.00000000    0.00000000
     atom   11 type  1   force =     0.00000000    0.00000000    0.00000000
     atom   12 type  1   force =     0.00000000    0.00000000    0.00000000
     atom   13 type  1   force =     0.00000000    0.00000000    0.00000000
     atom   14 type  1   force =     0.00000000    0.00000000    0.00000000
     atom   15 type  1   force =     0.00000000    0.00000000    0.00000000
     atom   16 type  1   force =     0.00000000    0.00000000    0.00000000
     atom   17 type  1   force =     0.00000000    0.00000000    0.00000000
     atom   18 type  1   force =     0.00000000    0.00000000    0.00000000
     atom   19 type  1   force =     0.00000000    0.00000000    0.00000000
     atom   20 type  1   force =     0.00000000    0.00000000    0.00000000
     atom   21 type  1   force =     0.00000000    0.00000000    0.00000000
     atom   22 type  1   force =     0.00000000    0.00000000    0.00000000
     atom   23 type  1   force =     0.00000000    0.00000000    0.00000000
     atom   24 type  1   force =     0.00000000    0.00000000    0.00000000
     atom   25 type  1   force =     0.00000000    0.00000000    0.00000000
     atom   26 type  1   force =     0.00000000    0.00000000    0.00000000
     atom   27 type  1   force =     0.00000000    0.00000000    0.00000000
     atom   28 type  1   force =     0.00000000    0.00000000    0.00000000
     atom   29 type  1   force =     0.00000000    0.00000000    0.00000000
     atom   30 type  1   force =     0.00000000    0.00000000    0.00000000
     atom   31 type  1   force =     0.00000000    0.00000000    0.00000000
     atom   32 type  1   force =     0.00000000    0.00000000    0.00000000
     atom   33 type  1   force =     0.00000000    0.00000000    0.00000000
     atom   34 type  1   force =     0.00000000    0.00000000    0.00000000
     atom   35 type  1   force =     0.00000000    0.00000000    0.00000000
     atom   36 type  1   force =     0.00000000    0.00000000    0.00000000
     atom   37 type  1   force =     0.00000000    0.00000000    0.00000000
     atom   38 type  1   force =     0.00000000    0.00000000    0.00000000
     atom   39 type  1   force =     0.00000000    0.00000000    0.00000000
     atom   40 type  1   force =     0.00000000    0.00000000    0.00000000
     atom   41 type  1   force =     0.00000000    0.00000000    0.00000000
     atom   42 type  1   force =     0.00000000    0.00000000    0.00000000
     atom   43 type  1   force =     0.00000000    0.00000000    0.00000000
     atom   44 type  1   force =     0.00000000    0.00000000    0.00000000
     atom   45 type  2   force =     0.00000000    0.00000000    0.00000000
     atom   46 type  2   force =     0.00000000    0.00000000    0.00000000
     atom   47 type  2   force =     0.00000000    0.00000000    0.00000000
     atom   48 type  2   force =     0.00000000    0.00000000    0.00000000
     atom   49 type  2   force =     0.00000000    0.00000000    0.00000000
     atom   50 type  2   force =     0.00000000    0.00000000    0.00000000
     atom   51 type  2   force =     0.00000000    0.00000000    0.00000000
     atom   52 type  2   force =     0.00000000    0.00000000    0.00000000
     atom   53 type  2   force =     0.00000000    0.00000000    0.00000000
     atom   54 type  2   force =     0.00000000    0.00000000    0.00000000
     atom   55 type  2   force =     0.00000000    0.00000000    0.00000000
     atom   56 type  2   force =     0.00000000    0.00000000    0.00000000
     atom   57 type  2   force =     0.00000000    0.00000000    0.00000000
     atom   58 type  2   force =     0.00000000    0.00000000    0.00000000
     atom   59 type  2   force =     0.00000000    0.00000000    0.00000000
     atom   60 type  2   force =     0.00000000    0.00000000    0.00000000
     atom   61 type  2   force =     0.00000000    0.00000000    0.00000000
     atom   62 type  2   force =     0.00000000    0.00000000    0.00000000
     atom   63 type  2   force =     0.00000000    0.00000000    0.00000000
     atom   64 type  2   force =     0.00000000    0.00000000    0.00000000
     atom   65 type  2   force =     0.00000000    0.00000000    0.00000000
     atom   66 type  2   force =     0.00000000    0.00000000    0.00000000
     The SCF correction term to forces
     atom    1 type  1   force =    -0.00000998   -0.00003526   -0.00000906
     atom    2 type  1   force =     0.00001672   -0.00001997   -0.00001362
     atom    3 type  1   force =     0.00000042   -0.00000107    0.00002261
     atom    4 type  1   force =     0.00001093   -0.00000068    0.00000213
     atom    5 type  1   force =    -0.00000042   -0.00000168   -0.00000407
     atom    6 type  1   force =     0.00001053    0.00000440    0.00000149
     atom    7 type  1   force =    -0.00002510   -0.00001628    0.00000530
     atom    8 type  1   force =    -0.00002824    0.00000438   -0.00002390
     atom    9 type  1   force =     0.00003481    0.00004979    0.00002817
     atom   10 type  1   force =     0.00005469   -0.00001229   -0.00000347
     atom   11 type  1   force =    -0.00000478    0.00000962   -0.00000588
     atom   12 type  1   force =    -0.00000991    0.00001827   -0.00000064
     atom   13 type  1   force =    -0.00000242   -0.00000076   -0.00001074
     atom   14 type  1   force =    -0.00000247   -0.00000842   -0.00000110
     atom   15 type  1   force =     0.00000652   -0.00000188   -0.00001798
     atom   16 type  1   force =     0.00001726   -0.00000215    0.00000729
     atom   17 type  1   force =    -0.00000784   -0.00002011    0.00000068
     atom   18 type  1   force =    -0.00000117   -0.00000838    0.00000560
     atom   19 type  1   force =    -0.00001737   -0.00000190   -0.00001418
     atom   20 type  1   force =     0.00001266   -0.00000157   -0.00000084
     atom   21 type  1   force =    -0.00001802    0.00001433    0.00005034
     atom   22 type  1   force =    -0.00003824    0.00002587   -0.00000874
     atom   23 type  1   force =     0.00000288    0.00000697    0.00000149
     atom   24 type  1   force =     0.00000266   -0.00000548    0.00001277
     atom   25 type  1   force =    -0.00000254   -0.00000032    0.00001297
     atom   26 type  1   force =    -0.00000888   -0.00000283   -0.00000046
     atom   27 type  1   force =     0.00000431   -0.00000949    0.00002946
     atom   28 type  1   force =     0.00002086    0.00001328    0.00001523
     atom   29 type  1   force =     0.00000230   -0.00000385    0.00000921
     atom   30 type  1   force =     0.00000098   -0.00000737    0.00000791
     atom   31 type  1   force =     0.00000620   -0.00000687   -0.00000804
     atom   32 type  1   force =     0.00000332   -0.00001474   -0.00001323
     atom   33 type  1   force =     0.00001386   -0.00000082   -0.00000885
     atom   34 type  1   force =     0.00001271    0.00000145   -0.00000067
     atom   35 type  1   force =     0.00000312    0.00000373   -0.00000204
     atom   36 type  1   force =    -0.00001848    0.00001123   -0.00001234
     atom   37 type  1   force =     0.00000061    0.00000850    0.00002046
     atom   38 type  1   force =     0.00000711   -0.00000972   -0.00000837
     atom   39 type  1   force =     0.00000056    0.00000082   -0.00000505
     atom   40 type  1   force =     0.00000227    0.00000775   -0.00000780
     atom   41 type  1   force =     0.00000372   -0.00000183   -0.00000177
     atom   42 type  1   force =    -0.00000029    0.00000436    0.00000831
     atom   43 type  1   force =    -0.00000263    0.00000051   -0.00000379
     atom   44 type  1   force =     0.00000155    0.00000355   -0.00001071
     atom   45 type  2   force =     0.00002843   -0.00021910   -0.00011696
     atom   46 type  2   force =    -0.00000272   -0.00001465    0.00012909
     atom   47 type  2   force =    -0.00005169    0.00005610    0.00003264
     atom   48 type  2   force =    -0.00024693   -0.00002087   -0.00011515
     atom   49 type  2   force =     0.00028381    0.00002232    0.00004296
     atom   50 type  2   force =    -0.00004794    0.00016686   -0.00007470
     atom   51 type  2   force =    -0.00002127   -0.00003377   -0.00010028
     atom   52 type  2   force =     0.00011454   -0.00003203    0.00001161
     atom   53 type  2   force =     0.00002846   -0.00014382    0.00004148
     atom   54 type  2   force =    -0.00001130    0.00013252    0.00000610
     atom   55 type  2   force =    -0.00017048    0.00013129    0.00014347
     atom   56 type  2   force =    -0.00000862   -0.00002077    0.00003094
     atom   57 type  2   force =    -0.00006439   -0.00008312   -0.00001092
     atom   58 type  2   force =     0.00009247   -0.00000256    0.00019372
     atom   59 type  2   force =     0.00001422   -0.00005680    0.00010846
     atom   60 type  2   force =     0.00008853   -0.00005488   -0.00013806
     atom   61 type  2   force =     0.00014041    0.00003057    0.00000520
     atom   62 type  2   force =     0.00002302   -0.00002013    0.00000559
     atom   63 type  2   force =    -0.00003045   -0.00003317   -0.00006296
     atom   64 type  2   force =     0.00000647    0.00001411   -0.00011104
     atom   65 type  2   force =     0.00005419   -0.00004256   -0.00006022
     atom   66 type  2   force =    -0.00002596    0.00012047   -0.00013699

     Total force =     0.486763     Total SCF correction =     0.000791


     Computing stress (Cartesian axis) and pressure


     negative rho (up, down):  5.050E-01 0.000E+00
          total   stress  (Ry/bohr**3)                   (kbar)     P=       -2.80
  -0.00002001  -0.00000009   0.00000011           -2.94       -0.01        0.02
  -0.00000009  -0.00001868  -0.00000015           -0.01       -2.75       -0.02
   0.00000011  -0.00000015  -0.00001836            0.02       -0.02       -2.70


     init_run     :      7.49s CPU      8.07s WALL (       1 calls)
     electrons    :     73.15s CPU     78.13s WALL (       1 calls)
     forces       :      5.60s CPU      5.88s WALL (       1 calls)
     stress       :     16.59s CPU     16.91s WALL (       1 calls)

     Called by init_run:
     wfcinit      :      2.80s CPU      2.96s WALL (       1 calls)
     potinit      :      1.28s CPU      1.34s WALL (       1 calls)
     hinit0       :      0.96s CPU      1.05s WALL (       1 calls)

     Called by electrons:
     c_bands      :     49.07s CPU     51.57s WALL (      10 calls)
     sum_band     :     13.64s CPU     14.81s WALL (      10 calls)
     v_of_rho     :      6.36s CPU      6.87s WALL (      11 calls)
     newd         :      2.84s CPU      3.67s WALL (      11 calls)
     PAW_pot      :      1.01s CPU      1.02s WALL (      11 calls)
     mix_rho      :      0.99s CPU      1.06s WALL (      10 calls)

     Called by c_bands:
     init_us_2    :      0.67s CPU      0.69s WALL (      21 calls)
     init_us_2:cp :      0.66s CPU      0.69s WALL (      21 calls)
     regterg      :     48.17s CPU     50.67s WALL (      10 calls)

     Called by *egterg:
     rdiaghg      :      0.23s CPU      0.23s WALL (      31 calls)
     h_psi        :     43.30s CPU     45.44s WALL (      32 calls)
     s_psi        :      1.39s CPU      1.39s WALL (      32 calls)
     g_psi        :      0.14s CPU      0.14s WALL (      21 calls)

     Called by h_psi:
     h_psi:calbec :      1.31s CPU      1.33s WALL (      32 calls)
     vloc_psi     :     40.24s CPU     42.36s WALL (      32 calls)
     add_vuspsi   :      1.38s CPU      1.38s WALL (      32 calls)

     General routines
     calbec       :      2.00s CPU      2.01s WALL (      47 calls)
     fft          :      3.48s CPU      4.01s WALL (     119 calls)
     ffts         :      0.24s CPU      0.27s WALL (      10 calls)
     fftw         :     35.23s CPU     37.65s WALL (    2906 calls)

     Parallel routines

     PWSCF        :   1m43.14s CPU   1m49.39s WALL


   This run was terminated on:   0:35:24  28Mar2024            

=------------------------------------------------------------------------------=
   JOB DONE.
=------------------------------------------------------------------------------=
