
     Program PWSCF v.7.2 starts on 27Mar2024 at 21:24:42 

     This program is part of the open-source Quantum ESPRESSO suite
     for quantum simulation of materials; please cite
         "P. Giannozzi et al., J. Phys.:Condens. Matter 21 395502 (2009);
         "P. Giannozzi et al., J. Phys.:Condens. Matter 29 465901 (2017);
         "P. Giannozzi et al., J. Chem. Phys. 152 154105 (2020);
          URL http://www.quantum-espresso.org", 
     in publications or presentations arising from this work. More details at
     http://www.quantum-espresso.org/quote

     Parallel version (MPI), running on    32 processors

     MPI processes distributed on     1 nodes
     175164 MiB available memory on the printing compute node when the environment starts

     Reading input from pw-wt-363.in
Warning: card &CELL ignored
Warning: card / ignored

     Current dimensions of program PWSCF are:
     Max number of different atomic species (ntypx) = 10
     Max number of k-points (npk) =  40000
     Max angular momentum in pseudopotentials (lmaxx) =  4
     file O.pbe-n-kjpaw_psl.0.1.UPF: wavefunction(s)  2P renormalized

     IMPORTANT: XC functional enforced from input :
     Exchange-correlation= PBE
                           (   1   4   3   4   0   0   0)
     Any further DFT definition will be discarded
     Please, verify this is what you really want


     gamma-point specific algorithms are used

     R & G space division:  proc/nbgrp/npool/nimage =      32
     Subspace diagonalization in iterative solution of the eigenvalue problem:
     a serial algorithm will be used


     Parallelization info
     --------------------
     sticks:   dense  smooth     PW     G-vecs:    dense   smooth      PW
     Min        1707    1707    426               301015   301015   37634
     Max        1710    1710    428               301034   301034   37648
     Sum       54693   54693  13673              9632757  9632757 1204469

     Using Slab Decomposition



     bravais-lattice index     =            0
     lattice parameter (alat)  =      75.7119  a.u.
     unit-cell volume          =  434002.3113 (a.u.)^3
     number of atoms/cell      =           66
     number of atomic types    =            2
     number of electrons       =       176.00
     number of Kohn-Sham states=           88
     kinetic-energy cutoff     =      30.0000  Ry
     charge density cutoff     =     120.0000  Ry
     scf convergence threshold =      1.0E-06
     mixing beta               =       0.5000
     number of iterations used =            8  plain     mixing
     Exchange-correlation= PBE
                           (   1   4   3   4   0   0   0)

     celldm(1)=  75.711877  celldm(2)=   0.000000  celldm(3)=   0.000000
     celldm(4)=   0.000000  celldm(5)=   0.000000  celldm(6)=   0.000000

     crystal axes: (cart. coord. in units of alat)
               a(1) = (   1.000000   0.000000   0.000000 )  
               a(2) = (   0.000000   1.000000   0.000000 )  
               a(3) = (   0.000000   0.000000   1.000000 )  

     reciprocal axes: (cart. coord. in units 2 pi/alat)
               b(1) = (  1.000000  0.000000  0.000000 )  
               b(2) = (  0.000000  1.000000  0.000000 )  
               b(3) = (  0.000000  0.000000  1.000000 )  


     PseudoPot. # 1 for H  read from file:
     /share/pfaendtnergroup/rverma7/QE_PP/H.pbe-rrkjus_psl.1.0.0.UPF
     MD5 check sum: f52b6d4d1c606e5624b1dc7b2218f220
     Pseudo is Ultrasoft, Zval =  1.0
     Generated using "atomic" code by A. Dal Corso  v.5.1
     Using radial grid of  929 points,  2 beta functions with: 
                l(1) =   0
                l(2) =   0
     Q(r) pseudized with 0 coefficients 


     PseudoPot. # 2 for O  read from file:
     /share/pfaendtnergroup/rverma7/QE_PP/O.pbe-n-kjpaw_psl.0.1.UPF
     MD5 check sum: 0234752ac141de4415c5fc33072bef88
     Pseudo is Projector augmented-wave + core cor, Zval =  6.0
     Generated using "atomic" code by A. Dal Corso  v.5.0.99 svn rev. 10869
     Shape of augmentation charge: BESSEL
     Using radial grid of 1095 points,  4 beta functions with: 
                l(1) =   0
                l(2) =   0
                l(3) =   1
                l(4) =   1
     Q(r) pseudized with 0 coefficients 


     atomic species   valence    mass     pseudopotential
        H              1.00     1.00800     H ( 1.00)
        O              6.00    15.99900     O ( 1.00)

     No symmetry found



   Cartesian axes

     site n.     atom                  positions (alat units)
         1           H   tau(   1) = (   0.1892674   0.3277923   0.4027955  )
         2           H   tau(   2) = (   0.2266567   0.3191314   0.3892425  )
         3           H   tau(   3) = (   0.2897042   0.2503182   0.4758018  )
         4           H   tau(   4) = (   0.2754025   0.2456009   0.4376888  )
         5           H   tau(   5) = (   0.3498814   0.1740172   0.3676775  )
         6           H   tau(   6) = (   0.3171596   0.1998502   0.3756645  )
         7           H   tau(   7) = (   0.2857856   0.4111569   0.4128541  )
         8           H   tau(   8) = (   0.3146637   0.3856982   0.3983527  )
         9           H   tau(   9) = (   0.1913141   0.1788094   0.4260327  )
        10           H   tau(  10) = (   0.1608137   0.1990515   0.4434294  )
        11           H   tau(  11) = (   0.2749782   0.1614876   0.4120305  )
        12           H   tau(  12) = (   0.2766754   0.1660801   0.3742918  )
        13           H   tau(  13) = (   0.3006614   0.1953825   0.4511169  )
        14           H   tau(  14) = (   0.3195058   0.1720454   0.4269562  )
        15           H   tau(  15) = (   0.3427680   0.1990515   0.2861350  )
        16           H   tau(  16) = (   0.3488331   0.1682266   0.2584800  )
        17           H   tau(  17) = (   0.3346562   0.2426307   0.4325222  )
        18           H   tau(  18) = (   0.3534257   0.2188693   0.4095095  )
        19           H   tau(  19) = (   0.3355048   0.3405716   0.3939848  )
        20           H   tau(  20) = (   0.3350555   0.3357794   0.4319980  )
        21           H   tau(  21) = (   0.1989267   0.1203045   0.4096593  )
        22           H   tau(  22) = (   0.2235617   0.1505054   0.4005241  )
        23           H   tau(  23) = (   0.2528891   0.3770872   0.3350805  )
        24           H   tau(  24) = (   0.2741295   0.3734931   0.3648321  )
        25           H   tau(  25) = (   0.3119431   0.2974167   0.3454886  )
        26           H   tau(  26) = (   0.2747286   0.3107450   0.3391239  )
        27           H   tau(  27) = (   0.4004243   0.1573443   0.3281667  )
        28           H   tau(  28) = (   0.3653313   0.1739673   0.3195557  )
        29           H   tau(  29) = (   0.3415949   0.2797704   0.3931611  )
        30           H   tau(  30) = (   0.3696743   0.2950955   0.3658555  )
        31           H   tau(  31) = (   0.2182703   0.2274304   0.4272807  )
        32           H   tau(  32) = (   0.2213403   0.2669911   0.4169225  )
        33           H   tau(  33) = (   0.2596780   0.1760140   0.4661176  )
        34           H   tau(  34) = (   0.2215150   0.1931112   0.4680644  )
        35           H   tau(  35) = (   0.2778735   0.2435542   0.3495819  )
        36           H   tau(  36) = (   0.2595283   0.2239860   0.3778610  )
        37           H   tau(  37) = (   0.2693623   0.2344939   0.5362536  )
        38           H   tau(  38) = (   0.2522651   0.2261825   0.5005616  )
        39           H   tau(  39) = (   0.3934856   0.2116810   0.3561712  )
        40           H   tau(  40) = (   0.3860976   0.2363659   0.3863721  )
        41           H   tau(  41) = (   0.3187570   0.2569574   0.3133408  )
        42           H   tau(  42) = (   0.3587171   0.2524647   0.3156870  )
        43           H   tau(  43) = (   0.4111818   0.2728566   0.3559466  )
        44           H   tau(  44) = (   0.4300262   0.3079246   0.3445900  )
        45           O   tau(  45) = (   0.2085860   0.3104455   0.4037190  )
        46           O   tau(  46) = (   0.2972170   0.2431549   0.4519406  )
        47           O   tau(  47) = (   0.3367278   0.1859229   0.3860227  )
        48           O   tau(  48) = (   0.2944465   0.4009734   0.3916136  )
        49           O   tau(  49) = (   0.1861725   0.1998003   0.4411831  )
        50           O   tau(  50) = (   0.2600275   0.1564458   0.3911644  )
        51           O   tau(  51) = (   0.3021091   0.1716211   0.4461500  )
        52           O   tau(  52) = (   0.3482591   0.1746662   0.2837639  )
        53           O   tau(  53) = (   0.3556970   0.2432797   0.4168227  )
        54           O   tau(  54) = (   0.3303632   0.3541245   0.4144266  )
        55           O   tau(  55) = (   0.1994010   0.1454137   0.4086110  )
        56           O   tau(  56) = (   0.2599526   0.3577686   0.3498565  )
        57           O   tau(  57) = (   0.2910770   0.2924498   0.3319855  )
        58           O   tau(  58) = (   0.3814052   0.1688506   0.3395233  )
        59           O   tau(  59) = (   0.3457382   0.2986148   0.3774616  )
        60           O   tau(  60) = (   0.2342194   0.2441033   0.4162985  )
        61           O   tau(  61) = (   0.2444028   0.1932110   0.4783976  )
        62           O   tau(  62) = (   0.2814676   0.2213403   0.3640334  )
        63           O   tau(  63) = (   0.2621490   0.2452764   0.5153875  )
        64           O   tau(  64) = (   0.3998003   0.2349432   0.3642331  )
        65           O   tau(  65) = (   0.3375764   0.2414826   0.3066267  )
        66           O   tau(  66) = (   0.4086609   0.2960439   0.3451641  )

     number of k points=     1
                       cart. coord. in units 2pi/alat
        k(    1) = (   0.0000000   0.0000000   0.0000000), wk =   2.0000000

     Dense  grid:  4816379 G-vectors     FFT dimensions: ( 270, 270, 270)

     Estimated max dynamical RAM per process >     612.29 MB

     Estimated total dynamical RAM >      19.13 GB

     Check: negative core charge=   -0.000006

     Initial potential from superposition of free atoms

     starting charge     175.9995, renormalised to     176.0000

     negative rho (up, down):  3.743E-01 0.000E+00
     Starting wfcs are  132 randomized atomic wfcs
     Checking if some PAW data can be deallocated... 

     total cpu time spent up to now is        8.1 secs

     Self-consistent Calculation

     iteration #  1     ecut=    30.00 Ry     beta= 0.50
     Davidson diagonalization with overlap
     ethr =  1.00E-02,  avg # of iterations =  2.0

     negative rho (up, down):  4.396E-01 0.000E+00

     total cpu time spent up to now is       16.0 secs

     total energy              =    -965.79493413 Ry
     estimated scf accuracy    <       6.73714656 Ry

     iteration #  2     ecut=    30.00 Ry     beta= 0.50
     Davidson diagonalization with overlap
     ethr =  3.83E-03,  avg # of iterations =  2.0

     negative rho (up, down):  4.588E-01 0.000E+00

     total cpu time spent up to now is       24.3 secs

     total energy              =    -967.70700196 Ry
     estimated scf accuracy    <       1.01314460 Ry

     iteration #  3     ecut=    30.00 Ry     beta= 0.50
     Davidson diagonalization with overlap
     ethr =  5.76E-04,  avg # of iterations =  2.0

     negative rho (up, down):  5.035E-01 0.000E+00

     total cpu time spent up to now is       31.6 secs

     total energy              =    -967.75900904 Ry
     estimated scf accuracy    <       0.13134567 Ry

     iteration #  4     ecut=    30.00 Ry     beta= 0.50
     Davidson diagonalization with overlap
     ethr =  7.46E-05,  avg # of iterations =  3.0

     negative rho (up, down):  5.026E-01 0.000E+00

     total cpu time spent up to now is       42.2 secs

     total energy              =    -967.78431614 Ry
     estimated scf accuracy    <       0.04859619 Ry

     iteration #  5     ecut=    30.00 Ry     beta= 0.50
     Davidson diagonalization with overlap
     ethr =  2.76E-05,  avg # of iterations =  2.0

     negative rho (up, down):  5.017E-01 0.000E+00

     total cpu time spent up to now is       49.7 secs

     total energy              =    -967.78535052 Ry
     estimated scf accuracy    <       0.00893987 Ry

     iteration #  6     ecut=    30.00 Ry     beta= 0.50
     Davidson diagonalization with overlap
     ethr =  5.08E-06,  avg # of iterations =  2.0

     negative rho (up, down):  5.008E-01 0.000E+00

     total cpu time spent up to now is       56.7 secs

     total energy              =    -967.78540654 Ry
     estimated scf accuracy    <       0.00221113 Ry

     iteration #  7     ecut=    30.00 Ry     beta= 0.50
     Davidson diagonalization with overlap
     ethr =  1.26E-06,  avg # of iterations =  2.0

     negative rho (up, down):  5.004E-01 0.000E+00

     total cpu time spent up to now is       64.5 secs

     total energy              =    -967.78569463 Ry
     estimated scf accuracy    <       0.00018434 Ry

     iteration #  8     ecut=    30.00 Ry     beta= 0.50
     Davidson diagonalization with overlap
     ethr =  1.05E-07,  avg # of iterations =  2.0

     negative rho (up, down):  5.004E-01 0.000E+00

     total cpu time spent up to now is       72.9 secs

     total energy              =    -967.78575857 Ry
     estimated scf accuracy    <       0.00001384 Ry

     iteration #  9     ecut=    30.00 Ry     beta= 0.50
     Davidson diagonalization with overlap
     ethr =  7.87E-09,  avg # of iterations =  2.0

     negative rho (up, down):  5.004E-01 0.000E+00

     total cpu time spent up to now is       80.2 secs

     total energy              =    -967.78575729 Ry
     estimated scf accuracy    <       0.00000861 Ry

     iteration # 10     ecut=    30.00 Ry     beta= 0.50
     Davidson diagonalization with overlap
     ethr =  4.89E-09,  avg # of iterations =  2.0

     negative rho (up, down):  5.005E-01 0.000E+00

     total cpu time spent up to now is       87.2 secs

     total energy              =    -967.78575758 Ry
     estimated scf accuracy    <       0.00000115 Ry

     iteration # 11     ecut=    30.00 Ry     beta= 0.50
     Davidson diagonalization with overlap
     ethr =  6.52E-10,  avg # of iterations =  2.0

     negative rho (up, down):  5.005E-01 0.000E+00

     total cpu time spent up to now is       95.3 secs

     End of self-consistent calculation

          k = 0.0000 0.0000 0.0000 (602235 PWs)   bands (ev):

   -25.8522 -25.5841 -25.4055 -25.3549 -25.3206 -25.2623 -25.1386 -25.0941
   -24.9886 -24.8840 -24.8214 -24.7873 -24.7614 -24.6546 -24.6208 -24.6144
   -24.5118 -24.4334 -24.3713 -24.3345 -24.1772 -24.1072 -13.9853 -13.5797
   -13.5390 -13.4191 -13.2649 -13.2136 -13.1294 -12.9260 -12.8489 -12.7395
   -12.7136 -12.5215 -12.4849 -12.4807 -12.3705 -12.2006 -12.1430 -12.1104
   -12.0298 -11.7772 -11.7478 -11.6267 -11.1573 -10.9063 -10.7126 -10.5655
   -10.3522 -10.2319 -10.0372  -9.8834  -9.8283  -9.7024  -9.6333  -9.5486
    -9.2845  -9.0726  -9.0294  -8.9333  -8.8452  -8.7374  -8.5978  -8.4414
    -8.2204  -8.0125  -7.9387  -7.7384  -7.6563  -7.6265  -7.5797  -7.5245
    -7.4594  -7.4466  -7.3564  -7.3039  -7.2588  -7.2138  -7.1559  -7.1298
    -7.0908  -7.0004  -6.9646  -6.8513  -6.8006  -6.7637  -6.6998  -6.5988

     highest occupied level (ev):    -6.5988

!    total energy              =    -967.78575786 Ry
     estimated scf accuracy    <       0.00000002 Ry

     The total energy is the sum of the following terms:
     one-electron contribution =   -5731.19069400 Ry
     hartree contribution      =    2900.43471131 Ry
     xc contribution           =    -193.36629349 Ry
     ewald contribution        =    2265.66436106 Ry
     one-center paw contrib.   =    -209.32784273 Ry

     convergence has been achieved in  11 iterations

     negative rho (up, down):  5.005E-01 0.000E+00

     Forces acting on atoms (cartesian axes, Ry/au):

     atom    1 type  1   force =     0.07791795   -0.06184174   -0.00131011
     atom    2 type  1   force =    -0.01737545    0.00961559    0.00444014
     atom    3 type  1   force =     0.01669859   -0.02353260   -0.05040291
     atom    4 type  1   force =     0.04329051   -0.00596135    0.03477385
     atom    5 type  1   force =    -0.01901717    0.02099844    0.03585822
     atom    6 type  1   force =     0.04746770   -0.02464137    0.01228742
     atom    7 type  1   force =     0.02038521   -0.02794707   -0.03855806
     atom    8 type  1   force =    -0.06580988    0.04290879    0.01245321
     atom    9 type  1   force =    -0.02388089    0.02435011    0.03828585
     atom   10 type  1   force =     0.06891141    0.00744215   -0.00303687
     atom   11 type  1   force =    -0.04425898   -0.01776165   -0.02471287
     atom   12 type  1   force =    -0.06335547   -0.02363222    0.01913936
     atom   13 type  1   force =    -0.00397142    0.04773225    0.01231277
     atom   14 type  1   force =    -0.03388955   -0.00879594    0.03685275
     atom   15 type  1   force =    -0.00515627   -0.00531100   -0.01629644
     atom   16 type  1   force =    -0.00135583    0.03477003    0.10122006
     atom   17 type  1   force =     0.04185310    0.02671357   -0.02156048
     atom   18 type  1   force =     0.00205659    0.03092987   -0.00805777
     atom   19 type  1   force =     0.00429742   -0.00786795    0.01036648
     atom   20 type  1   force =    -0.01733031    0.06939377   -0.04674751
     atom   21 type  1   force =    -0.00621872    0.05173608    0.00567387
     atom   22 type  1   force =    -0.03228259   -0.00899909   -0.00119516
     atom   23 type  1   force =    -0.00232441   -0.05787216    0.00973656
     atom   24 type  1   force =    -0.01662007   -0.03860777    0.00742183
     atom   25 type  1   force =    -0.02136519   -0.00250602    0.00051811
     atom   26 type  1   force =     0.04051949   -0.02824431   -0.02327142
     atom   27 type  1   force =    -0.02892931    0.01238566    0.02163500
     atom   28 type  1   force =     0.04895221   -0.02890150    0.02571884
     atom   29 type  1   force =     0.02343538   -0.01022572   -0.01024613
     atom   30 type  1   force =    -0.08032810    0.02241961    0.04851517
     atom   31 type  1   force =     0.01461578    0.03737201   -0.02035639
     atom   32 type  1   force =     0.03802448   -0.07057635   -0.00869901
     atom   33 type  1   force =    -0.05589161    0.05782295    0.03926420
     atom   34 type  1   force =     0.01801150   -0.00966061    0.00678980
     atom   35 type  1   force =     0.03929246   -0.07833792    0.04905657
     atom   36 type  1   force =     0.06375402   -0.01450781   -0.01828880
     atom   37 type  1   force =    -0.00388166    0.00082075   -0.01479653
     atom   38 type  1   force =     0.02714334    0.02423768    0.04014147
     atom   39 type  1   force =     0.01804594    0.03193033   -0.00077274
     atom   40 type  1   force =     0.04400716    0.00985270   -0.06295443
     atom   41 type  1   force =     0.03033944   -0.02038007   -0.01592739
     atom   42 type  1   force =    -0.05399939   -0.02520322   -0.01879654
     atom   43 type  1   force =     0.01349295    0.02623828   -0.03217672
     atom   44 type  1   force =    -0.00658957   -0.00853285    0.01013135
     atom   45 type  2   force =    -0.05356671    0.05128630   -0.00431445
     atom   46 type  2   force =    -0.06828115    0.02156838    0.01909763
     atom   47 type  2   force =    -0.03888013    0.00382136   -0.02937319
     atom   48 type  2   force =     0.02413071    0.00411235    0.01890196
     atom   49 type  2   force =    -0.04802385   -0.03573300   -0.02280816
     atom   50 type  2   force =     0.11741089    0.03988421    0.01351903
     atom   51 type  2   force =     0.04217201   -0.03294497   -0.06297426
     atom   52 type  2   force =    -0.01381517   -0.00294311   -0.09060918
     atom   53 type  2   force =    -0.05777322   -0.05212314    0.04503846
     atom   54 type  2   force =     0.03882106   -0.08741808    0.04201411
     atom   55 type  2   force =     0.03367107   -0.04703031   -0.02116379
     atom   56 type  2   force =     0.01224476    0.08913338   -0.00371608
     atom   57 type  2   force =    -0.01291240    0.02485303    0.03122329
     atom   58 type  2   force =    -0.00224991    0.00886462   -0.04669554
     atom   59 type  2   force =     0.06154297    0.00533092   -0.06097117
     atom   60 type  2   force =    -0.04555086    0.04445785    0.01860761
     atom   61 type  2   force =     0.01777459   -0.05975076   -0.03632019
     atom   62 type  2   force =    -0.09768171    0.09923989   -0.02260769
     atom   63 type  2   force =    -0.01119065   -0.02164194   -0.03038786
     atom   64 type  2   force =    -0.05213673   -0.04735252    0.06386744
     atom   65 type  2   force =     0.02717615    0.03668191    0.02316290
     atom   66 type  2   force =    -0.01156247   -0.02211869    0.01208055
     The non-local contrib.  to forces
     atom    1 type  1   force =     0.06661191   -0.05645528    0.00106645
     atom    2 type  1   force =    -0.07951530   -0.03491197    0.06140864
     atom    3 type  1   force =     0.02357737   -0.02352604   -0.08009650
     atom    4 type  1   force =     0.06926334   -0.00717563    0.04702003
     atom    5 type  1   force =    -0.04940895    0.04435504    0.06366976
     atom    6 type  1   force =     0.06264718   -0.04590461    0.03050837
     atom    7 type  1   force =     0.03568046   -0.04204365   -0.08184070
     atom    8 type  1   force =    -0.06261725    0.04671299   -0.01805046
     atom    9 type  1   force =    -0.01630237    0.06003918    0.04374299
     atom   10 type  1   force =     0.09309248    0.00136850   -0.00925165
     atom   11 type  1   force =    -0.04675537   -0.01511100   -0.06633479
     atom   12 type  1   force =    -0.06011831   -0.03464966    0.06170450
     atom   13 type  1   force =     0.00748543   -0.10905657   -0.02477374
     atom   14 type  1   force =    -0.05940100    0.00042640    0.06479584
     atom   15 type  1   force =     0.02198532   -0.09686117   -0.01349667
     atom   16 type  1   force =    -0.00187248    0.02401987    0.08215656
     atom   17 type  1   force =     0.06393853    0.00093087   -0.04846967
     atom   18 type  1   force =     0.00752746    0.08642639    0.02566194
     atom   19 type  1   force =    -0.02061063    0.05412525    0.08212316
     atom   20 type  1   force =    -0.01596220    0.06245333   -0.06108000
     atom   21 type  1   force =     0.00347609    0.09806683   -0.00376706
     atom   22 type  1   force =    -0.07492866   -0.01783789    0.02611411
     atom   23 type  1   force =     0.02669274   -0.07238175    0.05563765
     atom   24 type  1   force =    -0.04658714   -0.05161603   -0.04989362
     atom   25 type  1   force =    -0.07943011   -0.01693006   -0.04979789
     atom   26 type  1   force =     0.06057366   -0.06669524   -0.02408634
     atom   27 type  1   force =    -0.07825876    0.04664399    0.04434845
     atom   28 type  1   force =     0.05160104   -0.01651254    0.06082232
     atom   29 type  1   force =     0.01870245    0.07697970   -0.06504115
     atom   30 type  1   force =    -0.06669880    0.00686291    0.03404354
     atom   31 type  1   force =     0.05655675    0.06147272   -0.03903541
     atom   32 type  1   force =     0.03957233   -0.07420225   -0.00080236
     atom   33 type  1   force =    -0.05255916    0.05648215    0.03806916
     atom   34 type  1   force =     0.09094128   -0.00184912    0.03783715
     atom   35 type  1   force =     0.00993350   -0.06481955    0.04236354
     atom   36 type  1   force =     0.07293775   -0.00838679   -0.04644985
     atom   37 type  1   force =    -0.03173148    0.04388710   -0.09174885
     atom   38 type  1   force =     0.03184745    0.05781959    0.04850005
     atom   39 type  1   force =     0.02231756    0.08612645    0.03078090
     atom   40 type  1   force =     0.04373105   -0.00682056   -0.07265436
     atom   41 type  1   force =     0.07427243   -0.05848093   -0.02440030
     atom   42 type  1   force =    -0.08008894   -0.03874470   -0.03292371
     atom   43 type  1   force =    -0.00547675    0.08013375   -0.03582816
     atom   44 type  1   force =    -0.09369918   -0.05522765    0.00486438
     atom   45 type  2   force =    -0.02686476    1.83770059   -1.15344265
     atom   46 type  2   force =    -1.58784159    0.52580964    0.52992911
     atom   47 type  2   force =    -0.37943191    0.07243147   -1.66989022
     atom   48 type  2   force =     0.45970996   -0.26903834    1.88936531
     atom   49 type  2   force =    -1.36025056   -1.12608488   -0.65486949
     atom   50 type  2   force =     1.72262966    0.94167959    0.15632026
     atom   51 type  2   force =     0.75440685    1.62978644   -1.02958606
     atom   52 type  2   force =    -0.17521673    1.24009637   -1.53719786
     atom   53 type  2   force =    -1.29077762   -1.47570399    0.29523504
     atom   54 type  2   force =     0.59662344   -1.93013510   -0.20022316
     atom   55 type  2   force =     1.28854118   -1.34184876   -0.17507538
     atom   56 type  2   force =     0.33171321    2.14302079   -0.17130405
     atom   57 type  2   force =     0.22947868    1.35298831    1.40901824
     atom   58 type  2   force =     0.37516628   -0.43053525   -1.86197630
     atom   59 type  2   force =     1.00612085   -1.38951868    0.29775559
     atom   60 type  2   force =    -1.68357665    0.35883505    0.76908740
     atom   61 type  2   force =    -0.50959627   -1.01944323   -1.47745432
     atom   62 type  2   force =    -1.43125794    1.37323735    0.02706218
     atom   63 type  2   force =     0.08922125   -2.01336631    0.61106004
     atom   64 type  2   force =    -1.23469172   -1.24298043    0.79484575
     atom   65 type  2   force =     0.21026664    1.72931082    1.05681292
     atom   66 type  2   force =     1.74167793   -0.46447187    0.81646097
     The ionic contribution  to forces
     atom    1 type  1   force =    -4.02849523    3.10664235    0.08431130
     atom    2 type  1   force =     0.86132599    2.24467368   -1.89652190
     atom    3 type  1   force =    -0.00710130    1.88535801    4.31952208
     atom    4 type  1   force =    -2.18848833    1.26054430   -0.32590672
     atom    5 type  1   force =     1.93961639   -3.42754014   -1.81757834
     atom    6 type  1   force =    -1.36241769    0.05191433   -1.62225097
     atom    7 type  1   force =    -1.52162136    3.31747750    3.36520852
     atom    8 type  1   force =     2.26651381    1.17716177    0.61794208
     atom    9 type  1   force =    -1.84496381   -2.22200601   -1.03413792
     atom   10 type  1   force =    -5.45789174   -0.19943162    0.89360170
     atom   11 type  1   force =     0.89797994   -1.92141171    1.98009787
     atom   12 type  1   force =     1.13351000   -1.18441648   -3.30333583
     atom   13 type  1   force =     0.71496141    1.64093649    2.47023529
     atom   14 type  1   force =     2.95315495   -2.27421382   -0.49635417
     atom   15 type  1   force =    -0.55388690    1.98646181   -2.18553040
     atom   16 type  1   force =     0.29487370   -1.77854065   -4.80878315
     atom   17 type  1   force =    -0.30445150    0.45693700    3.10252333
     atom   18 type  1   force =     1.68964640   -2.96843575    0.71763896
     atom   19 type  1   force =     1.41469753    0.51224934   -2.07949663
     atom   20 type  1   force =     1.25610391   -0.61680160    3.76922158
     atom   21 type  1   force =    -1.46197032   -5.19799485    0.07419020
     atom   22 type  1   force =     0.42077838   -1.42236968   -1.27508252
     atom   23 type  1   force =    -1.89793490    3.86846414   -3.14846727
     atom   24 type  1   force =     0.63925412    2.98213484    0.69440507
     atom   25 type  1   force =     2.02902887    1.87095631   -0.05449410
     atom   26 type  1   force =    -2.83722236    2.77573610   -0.77657455
     atom   27 type  1   force =     4.31200350   -3.15696119   -2.10162472
     atom   28 type  1   force =    -0.38773425   -1.08341484   -2.65359637
     atom   29 type  1   force =     0.03059252   -0.81627574    2.30725391
     atom   30 type  1   force =     3.18106620    1.27750158   -1.24423443
     atom   31 type  1   force =    -3.30815137   -1.15680133    1.22348676
     atom   32 type  1   force =    -2.94992546    2.97778754    0.44593052
     atom   33 type  1   force =     0.83087420   -3.59066910    0.77900913
     atom   34 type  1   force =    -3.84230660   -0.95242409    0.92276837
     atom   35 type  1   force =    -1.68445921    1.99359786   -2.94062060
     atom   36 type  1   force =    -3.61098859    0.00430181    0.07045808
     atom   37 type  1   force =     1.01381963   -1.22716093    5.25019403
     atom   38 type  1   force =    -1.68069085   -1.21741586    1.23754831
     atom   39 type  1   force =     1.80256343   -3.01414785   -1.29558224
     atom   40 type  1   force =     1.38061562   -0.06404270    2.60845320
     atom   41 type  1   force =    -2.23927250    1.89544171   -1.74354904
     atom   42 type  1   force =     3.45471992    1.70675703   -1.15980461
     atom   43 type  1   force =     2.95121472   -1.21665132    0.57589723
     atom   44 type  1   force =     4.89970564    2.84555931   -0.69399195
     atom   45 type  2   force =   -10.74145539    4.80412564    2.73437822
     atom   46 type  2   force =     5.11196569    4.31625728    9.44006671
     atom   47 type  2   force =     6.17651604  -11.17383264    2.64517183
     atom   48 type  2   force =    -1.55399834   14.06857875   -1.88070827
     atom   49 type  2   force =   -13.09298642    0.64246235    5.16084725
     atom   50 type  2   force =    -6.13093485  -14.26191003   -5.39645335
     atom   51 type  2   force =     4.08153748  -15.08155155   11.09727228
     atom   52 type  2   force =     1.24348812   -9.60639425  -10.98243449
     atom   53 type  2   force =    12.33124323    3.90670706    9.23915715
     atom   54 type  2   force =     3.98844562   12.18441727    7.56335408
     atom   55 type  2   force =   -12.67967195   -9.37768233   -1.62501338
     atom   56 type  2   force =    -6.89773400    5.36630333   -6.11358677
     atom   57 type  2   force =    -5.46072324    3.79974157  -12.94467765
     atom   58 type  2   force =     9.86925646  -10.66520281   -1.07786604
     atom   59 type  2   force =     3.93794758   10.74312526   -0.99961072
     atom   60 type  2   force =    -7.10731638    3.69574781   -1.09862906
     atom   61 type  2   force =    -4.48832192   -5.66492778   14.44884440
     atom   62 type  2   force =    -4.09599296   -3.84154538   -8.59829385
     atom   63 type  2   force =    -1.92618194    7.51734281   13.72087254
     atom   64 type  2   force =    16.88946774   -0.23742250   -2.24939270
     atom   65 type  2   force =     1.50878573   -1.20874420  -15.26895576
     atom   66 type  2   force =     9.83801715    8.94493681   -6.66672149
     The local contribution  to forces
     atom    1 type  1   force =     4.03982870   -3.11199827   -0.08667937
     atom    2 type  1   force =    -0.79916328   -2.20011426    1.83956324
     atom    3 type  1   force =     0.00024738   -1.88533104   -4.28981771
     atom    4 type  1   force =     2.16253364   -1.25929755    0.31366569
     atom    5 type  1   force =    -1.90919756    3.40421593    1.78977694
     atom    6 type  1   force =     1.34726895   -0.03062314    1.60403497
     atom    7 type  1   force =     1.50635311   -3.30334894   -3.32191980
     atom    8 type  1   force =    -2.26967921   -1.18093340   -0.58742731
     atom    9 type  1   force =     1.83740959    2.18634299    1.02868562
     atom   10 type  1   force =     5.43373034    0.20553700   -0.88737842
     atom   11 type  1   force =    -0.89545237    1.91879368   -1.93846277
     atom   12 type  1   force =    -1.13671428    1.19546867    3.26077434
     atom   13 type  1   force =    -0.72639176   -1.48412222   -2.43314016
     atom   14 type  1   force =    -2.92761730    2.26502091    0.46842062
     atom   15 type  1   force =     0.52677037   -1.89486630    2.18273971
     atom   16 type  1   force =    -0.29432898    1.78932034    4.82784356
     atom   17 type  1   force =     0.28239748   -0.43112159   -3.07560879
     atom   18 type  1   force =    -1.69508812    2.91297126   -0.75135268
     atom   19 type  1   force =    -1.38976259   -0.57420586    2.00775248
     atom   20 type  1   force =    -1.25744526    0.62377793   -3.75488498
     atom   21 type  1   force =     1.45230070    5.15169385   -0.06474083
     atom   22 type  1   force =    -0.37810644    1.43123904    1.24778124
     atom   23 type  1   force =     1.86894025   -3.85390670    3.10256341
     atom   24 type  1   force =    -0.60925098   -2.96907824   -0.63707214
     atom   25 type  1   force =    -1.97094324   -1.85650068    0.10481150
     atom   26 type  1   force =     2.81720199   -2.73726036    0.77739330
     atom   27 type  1   force =    -4.26264930    3.12273582    2.07892293
     atom   28 type  1   force =     0.38511668    1.07105597    2.61850793
     atom   29 type  1   force =    -0.02583141    0.72909505   -2.25244673
     atom   30 type  1   force =    -3.19465949   -1.26191397    1.25870889
     atom   31 type  1   force =     3.26624289    1.13274125   -1.20480377
     atom   32 type  1   force =     2.94840585   -2.97413629   -0.45381833
     atom   33 type  1   force =    -0.83417843    3.59204023   -0.77780648
     atom   34 type  1   force =     3.76940306    0.94464430   -0.95380639
     atom   35 type  1   force =     1.71384529   -2.00708630    2.94732299
     atom   36 type  1   force =     3.60183247   -0.01038990   -0.04228934
     atom   37 type  1   force =    -0.98594024    1.18412132   -5.17322470
     atom   38 type  1   force =     1.67600992    1.18385626   -1.24590198
     atom   39 type  1   force =    -1.80680929    2.95997672    1.26403494
     atom   40 type  1   force =    -1.38031489    0.08074659   -2.59874273
     atom   41 type  1   force =     2.19536614   -1.85730651    1.75203001
     atom   42 type  1   force =    -3.42860251   -1.69318329    1.17393931
     atom   43 type  1   force =    -2.93221747    1.16279104   -0.57223955
     atom   44 type  1   force =    -4.81257210   -2.79883370    0.69926626
     atom   45 type  2   force =    10.71322761   -6.57137195   -1.59688127
     atom   46 type  2   force =    -3.60788550   -4.81493695   -9.94565136
     atom   47 type  2   force =    -5.83955811   11.10519373   -1.02238535
     atom   48 type  2   force =     1.12288807  -13.79787350    0.02976293
     atom   49 type  2   force =    14.39051192    0.43725148   -4.53529505
     atom   50 type  2   force =     4.54274229   13.36908851    5.25482822
     atom   51 type  2   force =    -4.78647988   13.43342803  -10.14077922
     atom   52 type  2   force =    -1.08360429    8.37528346   12.41209105
     atom   53 type  2   force =   -11.11071576   -2.49702685   -9.48666854
     atom   54 type  2   force =    -4.54014994  -10.36160071   -7.32197449
     atom   55 type  2   force =    11.43667533   10.65780405    1.77742375
     atom   56 type  2   force =     6.58082864   -7.39882569    6.27904718
     atom   57 type  2   force =     5.22078549   -5.11405747   11.58068320
     atom   58 type  2   force =   -10.24171723   11.10022097    2.87481322
     atom   59 type  2   force =    -4.87251270   -9.36162669    0.64405079
     atom   60 type  2   force =     8.72811654   -4.00619915    0.35612581
     atom   61 type  2   force =     5.01068859    6.61345208  -13.02297108
     atom   62 type  2   force =     5.41515803    2.58183108    8.54783213
     atom   63 type  2   force =     1.82713545   -5.54530696  -14.35574265
     atom   64 type  2   force =   -15.71914897    1.42020047    1.52724842
     atom   65 type  2   force =    -1.68958968   -0.46636997   14.24615656
     atom   66 type  2   force =   -11.57408791   -8.50650746    5.87059739
     The core correction contribution to forces
     atom    1 type  1   force =     0.00000000    0.00000000    0.00000000
     atom    2 type  1   force =     0.00000000    0.00000000    0.00000000
     atom    3 type  1   force =     0.00000000    0.00000000    0.00000000
     atom    4 type  1   force =     0.00000000    0.00000000    0.00000000
     atom    5 type  1   force =     0.00000000    0.00000000    0.00000000
     atom    6 type  1   force =     0.00000000    0.00000000    0.00000000
     atom    7 type  1   force =     0.00000000    0.00000000    0.00000000
     atom    8 type  1   force =     0.00000000    0.00000000    0.00000000
     atom    9 type  1   force =     0.00000000    0.00000000    0.00000000
     atom   10 type  1   force =     0.00000000    0.00000000    0.00000000
     atom   11 type  1   force =     0.00000000    0.00000000    0.00000000
     atom   12 type  1   force =     0.00000000    0.00000000    0.00000000
     atom   13 type  1   force =     0.00000000    0.00000000    0.00000000
     atom   14 type  1   force =     0.00000000    0.00000000    0.00000000
     atom   15 type  1   force =     0.00000000    0.00000000    0.00000000
     atom   16 type  1   force =     0.00000000    0.00000000    0.00000000
     atom   17 type  1   force =     0.00000000    0.00000000    0.00000000
     atom   18 type  1   force =     0.00000000    0.00000000    0.00000000
     atom   19 type  1   force =     0.00000000    0.00000000    0.00000000
     atom   20 type  1   force =     0.00000000    0.00000000    0.00000000
     atom   21 type  1   force =     0.00000000    0.00000000    0.00000000
     atom   22 type  1   force =     0.00000000    0.00000000    0.00000000
     atom   23 type  1   force =     0.00000000    0.00000000    0.00000000
     atom   24 type  1   force =     0.00000000    0.00000000    0.00000000
     atom   25 type  1   force =     0.00000000    0.00000000    0.00000000
     atom   26 type  1   force =     0.00000000    0.00000000    0.00000000
     atom   27 type  1   force =     0.00000000    0.00000000    0.00000000
     atom   28 type  1   force =     0.00000000    0.00000000    0.00000000
     atom   29 type  1   force =     0.00000000    0.00000000    0.00000000
     atom   30 type  1   force =     0.00000000    0.00000000    0.00000000
     atom   31 type  1   force =     0.00000000    0.00000000    0.00000000
     atom   32 type  1   force =     0.00000000    0.00000000    0.00000000
     atom   33 type  1   force =     0.00000000    0.00000000    0.00000000
     atom   34 type  1   force =     0.00000000    0.00000000    0.00000000
     atom   35 type  1   force =     0.00000000    0.00000000    0.00000000
     atom   36 type  1   force =     0.00000000    0.00000000    0.00000000
     atom   37 type  1   force =     0.00000000    0.00000000    0.00000000
     atom   38 type  1   force =     0.00000000    0.00000000    0.00000000
     atom   39 type  1   force =     0.00000000    0.00000000    0.00000000
     atom   40 type  1   force =     0.00000000    0.00000000    0.00000000
     atom   41 type  1   force =     0.00000000    0.00000000    0.00000000
     atom   42 type  1   force =     0.00000000    0.00000000    0.00000000
     atom   43 type  1   force =     0.00000000    0.00000000    0.00000000
     atom   44 type  1   force =     0.00000000    0.00000000    0.00000000
     atom   45 type  2   force =     0.00152697   -0.01912180    0.01164304
     atom   46 type  2   force =     0.01547335   -0.00552676   -0.00524120
     atom   47 type  2   force =     0.00365484    0.00001840    0.01767888
     atom   48 type  2   force =    -0.00447140    0.00250660   -0.01946939
     atom   49 type  2   force =     0.01467989    0.01067073    0.00652479
     atom   50 type  2   force =    -0.01699253   -0.00894160   -0.00116009
     atom   51 type  2   force =    -0.00726318   -0.01458899    0.01014452
     atom   52 type  2   force =     0.00155647   -0.01188762    0.01692974
     atom   53 type  2   force =     0.01252044    0.01395007   -0.00268181
     atom   54 type  2   force =    -0.00605674    0.01991960    0.00085226
     atom   55 type  2   force =    -0.01186252    0.01470396    0.00151656
     atom   56 type  2   force =    -0.00254267   -0.02127139    0.00210299
     atom   57 type  2   force =    -0.00240931   -0.01376275   -0.01378989
     atom   58 type  2   force =    -0.00489571    0.00438458    0.01836388
     atom   59 type  2   force =    -0.00996836    0.01336794   -0.00316172
     atom   60 type  2   force =     0.01723360   -0.00389611   -0.00795727
     atom   61 type  2   force =     0.00502115    0.01119090    0.01526804
     atom   62 type  2   force =     0.01443894   -0.01425055    0.00080050
     atom   63 type  2   force =    -0.00131895    0.01968322   -0.00651552
     atom   64 type  2   force =     0.01226503    0.01285818   -0.00884006
     atom   65 type  2   force =    -0.00224515   -0.01747271   -0.01084138
     atom   66 type  2   force =    -0.01712399    0.00397275   -0.00824493
     The Hubbard contrib.    to forces
     atom    1 type  1   force =     0.00000000    0.00000000    0.00000000
     atom    2 type  1   force =     0.00000000    0.00000000    0.00000000
     atom    3 type  1   force =     0.00000000    0.00000000    0.00000000
     atom    4 type  1   force =     0.00000000    0.00000000    0.00000000
     atom    5 type  1   force =     0.00000000    0.00000000    0.00000000
     atom    6 type  1   force =     0.00000000    0.00000000    0.00000000
     atom    7 type  1   force =     0.00000000    0.00000000    0.00000000
     atom    8 type  1   force =     0.00000000    0.00000000    0.00000000
     atom    9 type  1   force =     0.00000000    0.00000000    0.00000000
     atom   10 type  1   force =     0.00000000    0.00000000    0.00000000
     atom   11 type  1   force =     0.00000000    0.00000000    0.00000000
     atom   12 type  1   force =     0.00000000    0.00000000    0.00000000
     atom   13 type  1   force =     0.00000000    0.00000000    0.00000000
     atom   14 type  1   force =     0.00000000    0.00000000    0.00000000
     atom   15 type  1   force =     0.00000000    0.00000000    0.00000000
     atom   16 type  1   force =     0.00000000    0.00000000    0.00000000
     atom   17 type  1   force =     0.00000000    0.00000000    0.00000000
     atom   18 type  1   force =     0.00000000    0.00000000    0.00000000
     atom   19 type  1   force =     0.00000000    0.00000000    0.00000000
     atom   20 type  1   force =     0.00000000    0.00000000    0.00000000
     atom   21 type  1   force =     0.00000000    0.00000000    0.00000000
     atom   22 type  1   force =     0.00000000    0.00000000    0.00000000
     atom   23 type  1   force =     0.00000000    0.00000000    0.00000000
     atom   24 type  1   force =     0.00000000    0.00000000    0.00000000
     atom   25 type  1   force =     0.00000000    0.00000000    0.00000000
     atom   26 type  1   force =     0.00000000    0.00000000    0.00000000
     atom   27 type  1   force =     0.00000000    0.00000000    0.00000000
     atom   28 type  1   force =     0.00000000    0.00000000    0.00000000
     atom   29 type  1   force =     0.00000000    0.00000000    0.00000000
     atom   30 type  1   force =     0.00000000    0.00000000    0.00000000
     atom   31 type  1   force =     0.00000000    0.00000000    0.00000000
     atom   32 type  1   force =     0.00000000    0.00000000    0.00000000
     atom   33 type  1   force =     0.00000000    0.00000000    0.00000000
     atom   34 type  1   force =     0.00000000    0.00000000    0.00000000
     atom   35 type  1   force =     0.00000000    0.00000000    0.00000000
     atom   36 type  1   force =     0.00000000    0.00000000    0.00000000
     atom   37 type  1   force =     0.00000000    0.00000000    0.00000000
     atom   38 type  1   force =     0.00000000    0.00000000    0.00000000
     atom   39 type  1   force =     0.00000000    0.00000000    0.00000000
     atom   40 type  1   force =     0.00000000    0.00000000    0.00000000
     atom   41 type  1   force =     0.00000000    0.00000000    0.00000000
     atom   42 type  1   force =     0.00000000    0.00000000    0.00000000
     atom   43 type  1   force =     0.00000000    0.00000000    0.00000000
     atom   44 type  1   force =     0.00000000    0.00000000    0.00000000
     atom   45 type  2   force =     0.00000000    0.00000000    0.00000000
     atom   46 type  2   force =     0.00000000    0.00000000    0.00000000
     atom   47 type  2   force =     0.00000000    0.00000000    0.00000000
     atom   48 type  2   force =     0.00000000    0.00000000    0.00000000
     atom   49 type  2   force =     0.00000000    0.00000000    0.00000000
     atom   50 type  2   force =     0.00000000    0.00000000    0.00000000
     atom   51 type  2   force =     0.00000000    0.00000000    0.00000000
     atom   52 type  2   force =     0.00000000    0.00000000    0.00000000
     atom   53 type  2   force =     0.00000000    0.00000000    0.00000000
     atom   54 type  2   force =     0.00000000    0.00000000    0.00000000
     atom   55 type  2   force =     0.00000000    0.00000000    0.00000000
     atom   56 type  2   force =     0.00000000    0.00000000    0.00000000
     atom   57 type  2   force =     0.00000000    0.00000000    0.00000000
     atom   58 type  2   force =     0.00000000    0.00000000    0.00000000
     atom   59 type  2   force =     0.00000000    0.00000000    0.00000000
     atom   60 type  2   force =     0.00000000    0.00000000    0.00000000
     atom   61 type  2   force =     0.00000000    0.00000000    0.00000000
     atom   62 type  2   force =     0.00000000    0.00000000    0.00000000
     atom   63 type  2   force =     0.00000000    0.00000000    0.00000000
     atom   64 type  2   force =     0.00000000    0.00000000    0.00000000
     atom   65 type  2   force =     0.00000000    0.00000000    0.00000000
     atom   66 type  2   force =     0.00000000    0.00000000    0.00000000
     The SCF correction term to forces
     atom    1 type  1   force =    -0.00000061    0.00000136   -0.00000069
     atom    2 type  1   force =     0.00000396    0.00000002   -0.00000204
     atom    3 type  1   force =     0.00000196   -0.00000164   -0.00000298
     atom    4 type  1   force =     0.00000868   -0.00000058    0.00000265
     atom    5 type  1   force =    -0.00000023   -0.00000050   -0.00000234
     atom    6 type  1   force =    -0.00000393    0.00000394    0.00000284
     atom    7 type  1   force =    -0.00000019   -0.00000009    0.00000172
     atom    8 type  1   force =    -0.00000041   -0.00000068   -0.00000330
     atom    9 type  1   force =     0.00000251    0.00000584    0.00000296
     atom   10 type  1   force =     0.00000715    0.00000016   -0.00000069
     atom   11 type  1   force =    -0.00000436   -0.00000073   -0.00000537
     atom   12 type  1   force =    -0.00000606   -0.00000286    0.00000415
     atom   13 type  1   force =     0.00000032    0.00000644   -0.00000082
     atom   14 type  1   force =     0.00000061    0.00000246   -0.00000175
     atom   15 type  1   force =     0.00000176   -0.00001345   -0.00000128
     atom   16 type  1   force =    -0.00000125    0.00000236    0.00001090
     atom   17 type  1   force =    -0.00000460   -0.00000081    0.00000244
     atom   18 type  1   force =    -0.00000233   -0.00000015    0.00000181
     atom   19 type  1   force =    -0.00000007   -0.00000479   -0.00000473
     atom   20 type  1   force =     0.00000006   -0.00000400    0.00000367
     atom   21 type  1   force =     0.00000163    0.00000213   -0.00000066
     atom   22 type  1   force =     0.00000093    0.00000134   -0.00000019
     atom   23 type  1   force =     0.00000432   -0.00001595    0.00001058
     atom   24 type  1   force =    -0.00000926   -0.00001645   -0.00000968
     atom   25 type  1   force =     0.00000610    0.00000031    0.00000640
     atom   26 type  1   force =    -0.00000698    0.00000708    0.00000397
     atom   27 type  1   force =     0.00000206   -0.00000106   -0.00000387
     atom   28 type  1   force =    -0.00000445    0.00000180   -0.00000725
     atom   29 type  1   force =    -0.00000136    0.00000715   -0.00000436
     atom   30 type  1   force =    -0.00000919    0.00000098    0.00000497
     atom   31 type  1   force =    -0.00000568   -0.00000875    0.00000382
     atom   32 type  1   force =    -0.00000143    0.00000654   -0.00000105
     atom   33 type  1   force =    -0.00000140    0.00000156    0.00000019
     atom   34 type  1   force =     0.00000059    0.00000019   -0.00000153
     atom   35 type  1   force =    -0.00000030    0.00000196   -0.00000156
     atom   36 type  1   force =    -0.00000079   -0.00000104    0.00000010
     atom   37 type  1   force =    -0.00000275    0.00000517   -0.00000921
     atom   38 type  1   force =     0.00000364    0.00000958    0.00000289
     atom   39 type  1   force =     0.00000105    0.00000690    0.00000146
     atom   40 type  1   force =     0.00000219    0.00000127   -0.00000274
     atom   41 type  1   force =     0.00000018   -0.00000246   -0.00000026
     atom   42 type  1   force =    -0.00000104   -0.00000037    0.00000026
     atom   43 type  1   force =    -0.00000075   -0.00000330    0.00000156
     atom   44 type  1   force =     0.00000289    0.00000109    0.00000046
     atom   45 type  2   force =     0.00002569   -0.00001430   -0.00000399
     atom   46 type  2   force =     0.00003371   -0.00000295    0.00000217
     atom   47 type  2   force =    -0.00003417    0.00004230    0.00005948
     atom   48 type  2   force =     0.00002922   -0.00002927   -0.00004082
     atom   49 type  2   force =     0.00004814   -0.00000078   -0.00000786
     atom   50 type  2   force =    -0.00000686   -0.00000037   -0.00000822
     atom   51 type  2   force =    -0.00000244    0.00001299   -0.00001797
     atom   52 type  2   force =    -0.00001193   -0.00000917    0.00001017
     atom   53 type  2   force =    -0.00001669   -0.00001753    0.00000442
     atom   54 type  2   force =    -0.00001450    0.00001274    0.00001321
     atom   55 type  2   force =     0.00001585    0.00002466   -0.00000755
     atom   56 type  2   force =     0.00000639   -0.00006176    0.00003237
     atom   57 type  2   force =    -0.00001720   -0.00002475   -0.00000281
     atom   58 type  2   force =    -0.00003288    0.00002903   -0.00002250
     atom   59 type  2   force =    -0.00001757    0.00001498    0.00000269
     atom   60 type  2   force =     0.00001884    0.00000213   -0.00001147
     atom   61 type  2   force =     0.00000986    0.00000916    0.00000056
     atom   62 type  2   force =    -0.00000096   -0.00000071   -0.00000085
     atom   63 type  2   force =    -0.00001963    0.00003719   -0.00005446
     atom   64 type  2   force =    -0.00000201    0.00002366    0.00001381
     atom   65 type  2   force =    -0.00001457   -0.00001014   -0.00000164
     atom   66 type  2   force =    -0.00001884   -0.00001703   -0.00000360

     Total force =     0.536125     Total SCF correction =     0.000190


     Computing stress (Cartesian axis) and pressure


     negative rho (up, down):  5.005E-01 0.000E+00
          total   stress  (Ry/bohr**3)                   (kbar)     P=       -2.97
  -0.00002070   0.00000068   0.00000042           -3.05        0.10        0.06
   0.00000068  -0.00002009  -0.00000023            0.10       -2.96       -0.03
   0.00000042  -0.00000023  -0.00001979            0.06       -0.03       -2.91


     init_run     :      7.55s CPU      7.94s WALL (       1 calls)
     electrons    :     82.01s CPU     87.24s WALL (       1 calls)
     forces       :      5.56s CPU      5.86s WALL (       1 calls)
     stress       :     16.76s CPU     17.05s WALL (       1 calls)

     Called by init_run:
     wfcinit      :      2.77s CPU      2.93s WALL (       1 calls)
     potinit      :      1.31s CPU      1.37s WALL (       1 calls)
     hinit0       :      1.03s CPU      1.08s WALL (       1 calls)

     Called by electrons:
     c_bands      :     54.76s CPU     57.37s WALL (      11 calls)
     sum_band     :     15.16s CPU     16.37s WALL (      11 calls)
     v_of_rho     :      7.27s CPU      7.81s WALL (      12 calls)
     newd         :      3.24s CPU      4.15s WALL (      12 calls)
     PAW_pot      :      1.15s CPU      1.15s WALL (      12 calls)
     mix_rho      :      1.18s CPU      1.26s WALL (      11 calls)

     Called by c_bands:
     init_us_2    :      0.73s CPU      0.75s WALL (      23 calls)
     init_us_2:cp :      0.73s CPU      0.75s WALL (      23 calls)
     regterg      :     53.75s CPU     56.36s WALL (      11 calls)

     Called by *egterg:
     rdiaghg      :      0.25s CPU      0.25s WALL (      34 calls)
     h_psi        :     47.96s CPU     50.15s WALL (      35 calls)
     s_psi        :      1.51s CPU      1.51s WALL (      35 calls)
     g_psi        :      0.15s CPU      0.15s WALL (      23 calls)

     Called by h_psi:
     h_psi:calbec :      1.52s CPU      1.53s WALL (      35 calls)
     vloc_psi     :     44.55s CPU     46.70s WALL (      35 calls)
     add_vuspsi   :      1.51s CPU      1.51s WALL (      35 calls)

     General routines
     calbec       :      2.27s CPU      2.28s WALL (      51 calls)
     fft          :      4.09s CPU      4.61s WALL (     128 calls)
     ffts         :      0.27s CPU      0.30s WALL (      11 calls)
     fftw         :     39.46s CPU     41.94s WALL (    3152 calls)

     Parallel routines

     PWSCF        :   1m52.03s CPU   1m58.29s WALL


   This run was terminated on:  21:26:40  27Mar2024            

=------------------------------------------------------------------------------=
   JOB DONE.
=------------------------------------------------------------------------------=
