
     Program PWSCF v.7.2 starts on 27Mar2024 at  2:56:57 

     This program is part of the open-source Quantum ESPRESSO suite
     for quantum simulation of materials; please cite
         "P. Giannozzi et al., J. Phys.:Condens. Matter 21 395502 (2009);
         "P. Giannozzi et al., J. Phys.:Condens. Matter 29 465901 (2017);
         "P. Giannozzi et al., J. Chem. Phys. 152 154105 (2020);
          URL http://www.quantum-espresso.org", 
     in publications or presentations arising from this work. More details at
     http://www.quantum-espresso.org/quote

     Parallel version (MPI), running on    32 processors

     MPI processes distributed on     1 nodes
     170321 MiB available memory on the printing compute node when the environment starts

     Reading input from pw-wt-18.in
Warning: card &CELL ignored
Warning: card / ignored

     Current dimensions of program PWSCF are:
     Max number of different atomic species (ntypx) = 10
     Max number of k-points (npk) =  40000
     Max angular momentum in pseudopotentials (lmaxx) =  4
     file O.pbe-n-kjpaw_psl.0.1.UPF: wavefunction(s)  2P renormalized

     IMPORTANT: XC functional enforced from input :
     Exchange-correlation= PBE
                           (   1   4   3   4   0   0   0)
     Any further DFT definition will be discarded
     Please, verify this is what you really want


     gamma-point specific algorithms are used

     R & G space division:  proc/nbgrp/npool/nimage =      32
     Subspace diagonalization in iterative solution of the eigenvalue problem:
     a serial algorithm will be used


     Parallelization info
     --------------------
     sticks:   dense  smooth     PW     G-vecs:    dense   smooth      PW
     Min        1707    1707    426               301015   301015   37634
     Max        1710    1710    428               301034   301034   37648
     Sum       54693   54693  13673              9632757  9632757 1204469

     Using Slab Decomposition



     bravais-lattice index     =            0
     lattice parameter (alat)  =      75.7119  a.u.
     unit-cell volume          =  434002.3113 (a.u.)^3
     number of atoms/cell      =           66
     number of atomic types    =            2
     number of electrons       =       176.00
     number of Kohn-Sham states=           88
     kinetic-energy cutoff     =      30.0000  Ry
     charge density cutoff     =     120.0000  Ry
     scf convergence threshold =      1.0E-06
     mixing beta               =       0.5000
     number of iterations used =            8  plain     mixing
     Exchange-correlation= PBE
                           (   1   4   3   4   0   0   0)

     celldm(1)=  75.711877  celldm(2)=   0.000000  celldm(3)=   0.000000
     celldm(4)=   0.000000  celldm(5)=   0.000000  celldm(6)=   0.000000

     crystal axes: (cart. coord. in units of alat)
               a(1) = (   1.000000   0.000000   0.000000 )  
               a(2) = (   0.000000   1.000000   0.000000 )  
               a(3) = (   0.000000   0.000000   1.000000 )  

     reciprocal axes: (cart. coord. in units 2 pi/alat)
               b(1) = (  1.000000  0.000000  0.000000 )  
               b(2) = (  0.000000  1.000000  0.000000 )  
               b(3) = (  0.000000  0.000000  1.000000 )  


     PseudoPot. # 1 for H  read from file:
     /share/pfaendtnergroup/rverma7/QE_PP/H.pbe-rrkjus_psl.1.0.0.UPF
     MD5 check sum: f52b6d4d1c606e5624b1dc7b2218f220
     Pseudo is Ultrasoft, Zval =  1.0
     Generated using "atomic" code by A. Dal Corso  v.5.1
     Using radial grid of  929 points,  2 beta functions with: 
                l(1) =   0
                l(2) =   0
     Q(r) pseudized with 0 coefficients 


     PseudoPot. # 2 for O  read from file:
     /share/pfaendtnergroup/rverma7/QE_PP/O.pbe-n-kjpaw_psl.0.1.UPF
     MD5 check sum: 0234752ac141de4415c5fc33072bef88
     Pseudo is Projector augmented-wave + core cor, Zval =  6.0
     Generated using "atomic" code by A. Dal Corso  v.5.0.99 svn rev. 10869
     Shape of augmentation charge: BESSEL
     Using radial grid of 1095 points,  4 beta functions with: 
                l(1) =   0
                l(2) =   0
                l(3) =   1
                l(4) =   1
     Q(r) pseudized with 0 coefficients 


     atomic species   valence    mass     pseudopotential
        H              1.00     1.00800     H ( 1.00)
        O              6.00    15.99900     O ( 1.00)

     No symmetry found



   Cartesian axes

     site n.     atom                  positions (alat units)
         1           H   tau(   1) = (   0.3060027   0.2647947   0.3990016  )
         2           H   tau(   2) = (   0.2685137   0.2734057   0.3882691  )
         3           H   tau(   3) = (   0.3334581   0.2395857   0.4607263  )
         4           H   tau(   4) = (   0.3493823   0.2112567   0.4356171  )
         5           H   tau(   5) = (   0.3712717   0.3426682   0.4676650  )
         6           H   tau(   6) = (   0.3381255   0.3503307   0.4442531  )
         7           H   tau(   7) = (   0.3045052   0.1849994   0.2513665  )
         8           H   tau(   8) = (   0.3072507   0.1795333   0.2885561  )
         9           H   tau(   9) = (   0.2931736   0.2730064   0.5347311  )
        10           H   tau(  10) = (   0.2773743   0.2744790   0.4977162  )
        11           H   tau(  11) = (   0.1734681   0.2599027   0.3785598  )
        12           H   tau(  12) = (   0.2006489   0.2849619   0.3651067  )
        13           H   tau(  13) = (   0.3070760   0.1749407   0.4087108  )
        14           H   tau(  14) = (   0.3263447   0.1762885   0.4401847  )
        15           H   tau(  15) = (   0.2077374   0.2380631   0.4162985  )
        16           H   tau(  16) = (   0.2483964   0.2377137   0.4134531  )
        17           H   tau(  17) = (   0.2915013   0.3219768   0.3591664  )
        18           H   tau(  18) = (   0.2491951   0.3274179   0.3521028  )
        19           H   tau(  19) = (   0.3017846   0.2824910   0.3223512  )
        20           H   tau(  20) = (   0.2809934   0.2489704   0.3168351  )
        21           H   tau(  21) = (   0.2854112   0.1914888   0.3502808  )
        22           H   tau(  22) = (   0.3223512   0.1950830   0.3359790  )
        23           H   tau(  23) = (   0.2410583   0.2916511   0.3170099  )
        24           H   tau(  24) = (   0.2061899   0.2775739   0.3058031  )
        25           H   tau(  25) = (   0.4064645   0.2610508   0.3028079  )
        26           H   tau(  26) = (   0.3743916   0.2505179   0.3218769  )
        27           H   tau(  27) = (   0.3645326   0.1738924   0.3359042  )
        28           H   tau(  28) = (   0.3602895   0.1843504   0.3725197  )
        29           H   tau(  29) = (   0.2418320   0.2135280   0.4648446  )
        30           H   tau(  30) = (   0.2658430   0.2271559   0.4924498  )
        31           H   tau(  31) = (   0.3555223   0.2707351   0.4164233  )
        32           H   tau(  32) = (   0.3517784   0.3130912   0.4134781  )
        33           H   tau(  33) = (   0.2866093   0.3265693   0.4505429  )
        34           H   tau(  34) = (   0.2811431   0.3399476   0.4144765  )
        35           H   tau(  35) = (   0.3481093   0.1491327   0.2958193  )
        36           H   tau(  36) = (   0.3390490   0.1150381   0.3108948  )
        37           H   tau(  37) = (   0.3485586   0.3078497   0.3301635  )
        38           H   tau(  38) = (   0.3355547   0.2980407   0.3671783  )
        39           H   tau(  39) = (   0.2867091   0.1748409   0.4849370  )
        40           H   tau(  40) = (   0.3087483   0.1442656   0.5014851  )
        41           H   tau(  41) = (   0.2417821   0.2962436   0.4559840  )
        42           H   tau(  42) = (   0.2734806   0.2765506   0.4396106  )
        43           H   tau(  43) = (   0.2492450   0.1929365   0.4038188  )
        44           H   tau(  44) = (   0.2564083   0.1555223   0.4111319  )
        45           O   tau(  45) = (   0.2817422   0.2574566   0.4035442  )
        46           O   tau(  46) = (   0.3533508   0.2352926   0.4457507  )
        47           O   tau(  47) = (   0.3608886   0.3379009   0.4463247  )
        48           O   tau(  48) = (   0.3130912   0.1683764   0.2664670  )
        49           O   tau(  49) = (   0.2830151   0.2580557   0.5176838  )
        50           O   tau(  50) = (   0.1943592   0.2704855   0.3861725  )
        51           O   tau(  51) = (   0.3302384   0.1814801   0.4165731  )
        52           O   tau(  52) = (   0.2274554   0.2236615   0.4217397  )
        53           O   tau(  53) = (   0.2668414   0.3235742   0.3699988  )
        54           O   tau(  54) = (   0.2791214   0.2725821   0.3126919  )
        55           O   tau(  55) = (   0.2982154   0.1954075   0.3289405  )
        56           O   tau(  56) = (   0.2162736   0.2904780   0.3239735  )
        57           O   tau(  57) = (   0.3872707   0.2703856   0.3167103  )
        58           O   tau(  58) = (   0.3623612   0.1942094   0.3496318  )
        59           O   tau(  59) = (   0.2593036   0.2059653   0.4810932  )
        60           O   tau(  60) = (   0.3423187   0.2894796   0.4046175  )
        61           O   tau(  61) = (   0.2944964   0.3466118   0.4354174  )
        62           O   tau(  62) = (   0.3534506   0.1339573   0.3151379  )
        63           O   tau(  63) = (   0.3269687   0.3078497   0.3449395  )
        64           O   tau(  64) = (   0.3040559   0.1566455   0.4800948  )
        65           O   tau(  65) = (   0.2655185   0.2906527   0.4605017  )
        66           O   tau(  66) = (   0.2652689   0.1731187   0.3967303  )

     number of k points=     1
                       cart. coord. in units 2pi/alat
        k(    1) = (   0.0000000   0.0000000   0.0000000), wk =   2.0000000

     Dense  grid:  4816379 G-vectors     FFT dimensions: ( 270, 270, 270)

     Estimated max dynamical RAM per process >     612.29 MB

     Estimated total dynamical RAM >      19.13 GB

     Check: negative core charge=   -0.000006

     Initial potential from superposition of free atoms

     starting charge     175.9995, renormalised to     176.0000

     negative rho (up, down):  3.714E-01 0.000E+00
     Starting wfcs are  132 randomized atomic wfcs
     Checking if some PAW data can be deallocated... 

     total cpu time spent up to now is        8.8 secs

     Self-consistent Calculation

     iteration #  1     ecut=    30.00 Ry     beta= 0.50
     Davidson diagonalization with overlap
     ethr =  1.00E-02,  avg # of iterations =  2.0

     negative rho (up, down):  4.403E-01 0.000E+00

     total cpu time spent up to now is       17.9 secs

     total energy              =    -965.76660508 Ry
     estimated scf accuracy    <       6.90233816 Ry

     iteration #  2     ecut=    30.00 Ry     beta= 0.50
     Davidson diagonalization with overlap
     ethr =  3.92E-03,  avg # of iterations =  2.0

     negative rho (up, down):  4.616E-01 0.000E+00

     total cpu time spent up to now is       27.4 secs

     total energy              =    -967.70180055 Ry
     estimated scf accuracy    <       1.00911589 Ry

     iteration #  3     ecut=    30.00 Ry     beta= 0.50
     Davidson diagonalization with overlap
     ethr =  5.73E-04,  avg # of iterations =  2.0

     negative rho (up, down):  5.085E-01 0.000E+00

     total cpu time spent up to now is       35.8 secs

     total energy              =    -967.75408630 Ry
     estimated scf accuracy    <       0.13182951 Ry

     iteration #  4     ecut=    30.00 Ry     beta= 0.50
     Davidson diagonalization with overlap
     ethr =  7.49E-05,  avg # of iterations =  3.0

     negative rho (up, down):  5.082E-01 0.000E+00

     total cpu time spent up to now is       45.6 secs

     total energy              =    -967.77857530 Ry
     estimated scf accuracy    <       0.04209393 Ry

     iteration #  5     ecut=    30.00 Ry     beta= 0.50
     Davidson diagonalization with overlap
     ethr =  2.39E-05,  avg # of iterations =  2.0

     negative rho (up, down):  5.072E-01 0.000E+00

     total cpu time spent up to now is       53.4 secs

     total energy              =    -967.77898338 Ry
     estimated scf accuracy    <       0.00855156 Ry

     iteration #  6     ecut=    30.00 Ry     beta= 0.50
     Davidson diagonalization with overlap
     ethr =  4.86E-06,  avg # of iterations =  2.0

     negative rho (up, down):  5.064E-01 0.000E+00

     total cpu time spent up to now is       61.3 secs

     total energy              =    -967.77904514 Ry
     estimated scf accuracy    <       0.00207118 Ry

     iteration #  7     ecut=    30.00 Ry     beta= 0.50
     Davidson diagonalization with overlap
     ethr =  1.18E-06,  avg # of iterations =  2.0

     negative rho (up, down):  5.060E-01 0.000E+00

     total cpu time spent up to now is       70.0 secs

     total energy              =    -967.77923874 Ry
     estimated scf accuracy    <       0.00024713 Ry

     iteration #  8     ecut=    30.00 Ry     beta= 0.50
     Davidson diagonalization with overlap
     ethr =  1.40E-07,  avg # of iterations =  2.0

     negative rho (up, down):  5.059E-01 0.000E+00

     total cpu time spent up to now is       79.4 secs

     total energy              =    -967.77931216 Ry
     estimated scf accuracy    <       0.00001295 Ry

     iteration #  9     ecut=    30.00 Ry     beta= 0.50
     Davidson diagonalization with overlap
     ethr =  7.36E-09,  avg # of iterations =  2.0

     negative rho (up, down):  5.060E-01 0.000E+00

     total cpu time spent up to now is       88.3 secs

     total energy              =    -967.77931002 Ry
     estimated scf accuracy    <       0.00001117 Ry

     iteration # 10     ecut=    30.00 Ry     beta= 0.50
     Davidson diagonalization with overlap
     ethr =  6.35E-09,  avg # of iterations =  2.0

     negative rho (up, down):  5.061E-01 0.000E+00

     total cpu time spent up to now is       96.9 secs

     End of self-consistent calculation

          k = 0.0000 0.0000 0.0000 (602235 PWs)   bands (ev):

   -26.3146 -25.8792 -25.7105 -25.6755 -25.5672 -25.4875 -25.4455 -25.3182
   -25.2660 -25.1874 -25.1316 -25.1002 -24.9920 -24.8901 -24.8147 -24.7726
   -24.7073 -24.6184 -24.5836 -24.2069 -24.2009 -24.1471 -14.1170 -13.7572
   -13.7043 -13.5267 -13.5037 -13.3298 -13.2425 -13.1085 -13.0433 -12.9816
   -12.9583 -12.8956 -12.8285 -12.7154 -12.5299 -12.4878 -12.3699 -12.3033
   -12.1962 -12.1584 -11.8006 -11.7722 -11.2063 -10.9296 -10.7288 -10.5565
   -10.4740 -10.2684 -10.2104 -10.0867  -9.9543  -9.8464  -9.6495  -9.5600
    -9.4830  -9.3603  -9.2623  -9.1054  -9.0072  -8.9301  -8.8550  -8.7967
    -8.5552  -8.2910  -8.2463  -7.9794  -7.8541  -7.7842  -7.7248  -7.6552
    -7.5529  -7.4878  -7.4447  -7.4285  -7.3128  -7.2619  -7.1958  -7.1855
    -7.1690  -7.0853  -7.0617  -6.9527  -6.8060  -6.7038  -6.6539  -6.5862

     highest occupied level (ev):    -6.5862

!    total energy              =    -967.77931099 Ry
     estimated scf accuracy    <       0.00000060 Ry

     The total energy is the sum of the following terms:
     one-electron contribution =   -5916.37553079 Ry
     hartree contribution      =    2992.14878897 Ry
     xc contribution           =    -193.71186369 Ry
     ewald contribution        =    2359.48158972 Ry
     one-center paw contrib.   =    -209.32229521 Ry

     convergence has been achieved in  10 iterations

     negative rho (up, down):  5.061E-01 0.000E+00

     Forces acting on atoms (cartesian axes, Ry/au):

     atom    1 type  1   force =    -0.03318538   -0.00710790    0.02409685
     atom    2 type  1   force =     0.03516200   -0.02015096    0.02331665
     atom    3 type  1   force =     0.04189686   -0.01660357   -0.03080743
     atom    4 type  1   force =    -0.00469737    0.08855047    0.01703606
     atom    5 type  1   force =     0.00104888    0.00516913    0.00767262
     atom    6 type  1   force =     0.04239090   -0.03517170    0.01308049
     atom    7 type  1   force =    -0.00372197    0.01513221   -0.03274446
     atom    8 type  1   force =    -0.00778260   -0.02558137   -0.01553346
     atom    9 type  1   force =    -0.01174944   -0.02326160   -0.01709510
     atom   10 type  1   force =     0.01268526   -0.04380575    0.05535412
     atom   11 type  1   force =     0.00804294    0.00641509    0.00488725
     atom   12 type  1   force =    -0.00391927   -0.05276422    0.04886741
     atom   13 type  1   force =     0.00727210    0.02415959   -0.01403744
     atom   14 type  1   force =     0.00566171   -0.02909095    0.03011156
     atom   15 type  1   force =     0.02864215   -0.00972849   -0.01448688
     atom   16 type  1   force =    -0.06491554   -0.04448684    0.03058539
     atom   17 type  1   force =    -0.09869664    0.01412085    0.01299432
     atom   18 type  1   force =     0.05722275   -0.00598654    0.03927945
     atom   19 type  1   force =    -0.07102646   -0.02067373   -0.02075363
     atom   20 type  1   force =     0.00156286   -0.04454099    0.00666228
     atom   21 type  1   force =     0.01888189   -0.00652197   -0.03726576
     atom   22 type  1   force =    -0.00577663    0.00870047    0.01581437
     atom   23 type  1   force =    -0.02847585   -0.03059653    0.01841586
     atom   24 type  1   force =    -0.00253887    0.00413983    0.00370754
     atom   25 type  1   force =    -0.04947273    0.02826185    0.03642016
     atom   26 type  1   force =    -0.00913596   -0.02219225    0.01086949
     atom   27 type  1   force =     0.00762257   -0.01454459    0.00353958
     atom   28 type  1   force =    -0.00289740    0.01785640   -0.01390811
     atom   29 type  1   force =     0.01642615   -0.01727285   -0.00013297
     atom   30 type  1   force =     0.00172173   -0.02766914    0.01038153
     atom   31 type  1   force =    -0.02639424    0.02900897   -0.00778903
     atom   32 type  1   force =    -0.02858239   -0.09890005   -0.00075041
     atom   33 type  1   force =     0.02463759    0.05855450   -0.03819741
     atom   34 type  1   force =     0.03764960    0.03086870    0.03291607
     atom   35 type  1   force =     0.00106410   -0.02888817    0.01071887
     atom   36 type  1   force =    -0.01313441   -0.01522867    0.00208473
     atom   37 type  1   force =    -0.07167546    0.00469772    0.04693728
     atom   38 type  1   force =     0.00313983    0.00078398   -0.00597909
     atom   39 type  1   force =     0.01699001   -0.02524035   -0.00528965
     atom   40 type  1   force =    -0.01235417    0.03224270   -0.04353838
     atom   41 type  1   force =     0.02060638   -0.00838776    0.00502456
     atom   42 type  1   force =    -0.01838736    0.02618713    0.03445012
     atom   43 type  1   force =     0.03638760   -0.05065621   -0.01865274
     atom   44 type  1   force =     0.00314591   -0.01327838   -0.00192758
     atom   45 type  2   force =    -0.00299864    0.05760910   -0.04835077
     atom   46 type  2   force =    -0.02575236   -0.03209907    0.00930259
     atom   47 type  2   force =    -0.05027250    0.03776278   -0.02837750
     atom   48 type  2   force =     0.00352591    0.00859140    0.05614692
     atom   49 type  2   force =     0.00178799    0.07848201   -0.03894232
     atom   50 type  2   force =    -0.01286446    0.04497914   -0.05739392
     atom   51 type  2   force =    -0.01547992   -0.03000239   -0.01130369
     atom   52 type  2   force =     0.04592716    0.04015807   -0.00741947
     atom   53 type  2   force =     0.03838125   -0.00104569   -0.04128374
     atom   54 type  2   force =     0.07106684    0.06223896    0.00752407
     atom   55 type  2   force =    -0.02366749    0.00947576    0.02255654
     atom   56 type  2   force =     0.02286195    0.02151817   -0.01772067
     atom   57 type  2   force =     0.05376712   -0.00695751   -0.04155900
     atom   58 type  2   force =     0.00220334   -0.00746004    0.01853897
     atom   59 type  2   force =    -0.01979200    0.03251151   -0.00362077
     atom   60 type  2   force =     0.05667844    0.03917346    0.02268988
     atom   61 type  2   force =    -0.05941857   -0.06496659   -0.00195631
     atom   62 type  2   force =     0.01465515    0.04275879   -0.02938018
     atom   63 type  2   force =     0.08996029   -0.01307933   -0.05199537
     atom   64 type  2   force =    -0.00192601   -0.00487695    0.03594581
     atom   65 type  2   force =    -0.00469809   -0.02240309   -0.03563250
     atom   66 type  2   force =    -0.04528699    0.05111346    0.01589634
     The non-local contrib.  to forces
     atom    1 type  1   force =    -0.08422608   -0.02408025    0.01423895
     atom    2 type  1   force =     0.04811881   -0.05621115    0.05445680
     atom    3 type  1   force =     0.07458063   -0.01870185   -0.05866636
     atom    4 type  1   force =     0.00856914    0.07109882    0.03193271
     atom    5 type  1   force =    -0.05070787   -0.02034420   -0.09872270
     atom    6 type  1   force =     0.07566486   -0.03947926    0.01039647
     atom    7 type  1   force =     0.04120974   -0.07839330    0.07408954
     atom    8 type  1   force =     0.02175804   -0.03925263   -0.08276060
     atom    9 type  1   force =    -0.04191555   -0.05948548   -0.07153040
     atom   10 type  1   force =     0.01776192   -0.04707891    0.06038558
     atom   11 type  1   force =     0.08998694    0.04639744    0.03089042
     atom   12 type  1   force =    -0.02141500   -0.04548295    0.06450394
     atom   13 type  1   force =     0.08544278    0.02448162    0.02999701
     atom   14 type  1   force =     0.01743435    0.02402216   -0.10572943
     atom   15 type  1   force =     0.08029132   -0.05750422    0.02149010
     atom   16 type  1   force =    -0.06203897   -0.03840815    0.02328332
     atom   17 type  1   force =    -0.06678977    0.00378355    0.02605158
     atom   18 type  1   force =     0.06853873   -0.01442430    0.06409991
     atom   19 type  1   force =    -0.06488626   -0.03049284   -0.02683884
     atom   20 type  1   force =    -0.00798454    0.11506383   -0.01883082
     atom   21 type  1   force =     0.05199305    0.01531906   -0.08242207
     atom   22 type  1   force =    -0.09234329    0.00051898   -0.02474994
     atom   23 type  1   force =    -0.08544524   -0.00461136    0.02241496
     atom   24 type  1   force =     0.04649945    0.05727023    0.08013319
     atom   25 type  1   force =    -0.07201995    0.03181538    0.05141744
     atom   26 type  1   force =     0.06230079    0.09213887   -0.02646737
     atom   27 type  1   force =    -0.00964337    0.08808822    0.06089193
     atom   28 type  1   force =     0.00855237    0.03800975   -0.09465132
     atom   29 type  1   force =     0.07012462   -0.02830391    0.06560518
     atom   30 type  1   force =    -0.02812364   -0.08488636   -0.04854407
     atom   31 type  1   force =    -0.04389372    0.06610391   -0.04068077
     atom   32 type  1   force =    -0.02508346   -0.06525569   -0.02341425
     atom   33 type  1   force =     0.02350360    0.06038523   -0.04745671
     atom   34 type  1   force =     0.04706168    0.02173179    0.07444557
     atom   35 type  1   force =     0.01988921   -0.06109479    0.07643049
     atom   36 type  1   force =     0.06703339    0.09100737    0.01813648
     atom   37 type  1   force =    -0.07034047    0.00019733    0.04935815
     atom   38 type  1   force =    -0.02707677    0.03156532   -0.07220953
     atom   39 type  1   force =     0.06111350   -0.06468810   -0.01362126
     atom   40 type  1   force =    -0.01992877    0.05008383   -0.08150701
     atom   41 type  1   force =     0.10001270   -0.02497284    0.01708244
     atom   42 type  1   force =    -0.02579371    0.04134803    0.05929839
     atom   43 type  1   force =     0.04728032   -0.05894578   -0.01946563
     atom   44 type  1   force =     0.03894177    0.08058137   -0.06456102
     atom   45 type  2   force =     0.40121707    1.48407401   -1.02768301
     atom   46 type  2   force =    -1.71303276   -1.01523198    0.35887795
     atom   47 type  2   force =    -0.60278705    1.12879502    1.44279101
     atom   48 type  2   force =    -0.89519815    2.05579565    0.30450695
     atom   49 type  2   force =     0.41034892    2.09379240   -0.00131515
     atom   50 type  2   force =    -1.18608774    0.04324453   -1.75755806
     atom   51 type  2   force =    -1.50896076   -0.60664811    1.14044618
     atom   52 type  2   force =    -0.04382258    1.65180272   -0.83825860
     atom   53 type  2   force =     0.19503084    0.14582081   -1.89912193
     atom   54 type  2   force =     1.30010827   -1.08893966    0.89590245
     atom   55 type  2   force =     0.61838167   -0.27107688    1.79407201
     atom   56 type  2   force =     0.66013357   -0.82291637   -1.65999691
     atom   57 type  2   force =     0.35646726   -2.18275991   -0.68080023
     atom   58 type  2   force =    -0.16138996   -2.08634925    0.54356779
     atom   59 type  2   force =    -0.61452038    1.81745788   -0.34929937
     atom   60 type  2   force =     1.25032965    0.16184907    0.80254423
     atom   61 type  2   force =    -1.12779320   -1.63831079   -0.45216964
     atom   62 type  2   force =    -1.49309930   -0.27849829   -1.63927519
     atom   63 type  2   force =     1.62643327   -0.57813137    0.20587756
     atom   64 type  2   force =    -0.66455536    0.27520137    1.91452003
     atom   65 type  2   force =    -1.21323175   -0.36853370   -1.39290605
     atom   66 type  2   force =    -1.40931584   -0.12104245    1.49094169
     The ionic contribution  to forces
     atom    1 type  1   force =     2.70498181    0.47886247   -0.60126381
     atom    2 type  1   force =    -2.45379352    1.99670413   -2.03659589
     atom    3 type  1   force =    -0.85531717    0.42866035    3.79392592
     atom    4 type  1   force =     2.11423047   -2.63613140    0.41405231
     atom    5 type  1   force =     3.06151193    2.00343921    4.37996300
     atom    6 type  1   force =    -0.90683260    3.69577778    0.90411929
     atom    7 type  1   force =    -1.45970143    1.93507452   -4.46673758
     atom    8 type  1   force =    -0.99485683    0.23320836    0.12367712
     atom    9 type  1   force =     1.56046301    2.44361942    4.68600745
     atom   10 type  1   force =    -0.69772388    2.27329399    0.92212522
     atom   11 type  1   force =    -5.42748761   -1.49589413   -1.21648487
     atom   12 type  1   force =    -1.85304563    2.24888400   -2.10844452
     atom   13 type  1   force =    -1.77701994   -2.81435510   -0.66801434
     atom   14 type  1   force =     0.86455495   -2.52221876    3.90265598
     atom   15 type  1   force =    -4.97139980    0.91911465    0.22634381
     atom   16 type  1   force =    -0.11243554    0.54951967   -0.38755159
     atom   17 type  1   force =     1.54845455    2.54357626   -1.80319023
     atom   18 type  1   force =    -3.26120703    2.96222518   -2.88680370
     atom   19 type  1   force =     2.13864367    1.32795338   -1.65165783
     atom   20 type  1   force =    -0.41550914   -3.40281630   -1.58774605
     atom   21 type  1   force =    -2.45364661   -1.76216623    1.21664283
     atom   22 type  1   force =     2.58805131   -0.73740079   -0.49515962
     atom   23 type  1   force =     0.85928501    1.32884821   -2.76811008
     atom   24 type  1   force =    -3.29105911   -1.54316190   -4.29348697
     atom   25 type  1   force =     4.21159007   -0.76235260   -2.98016739
     atom   26 type  1   force =    -0.03790099   -2.50672348   -0.64831514
     atom   27 type  1   force =     2.37464947   -3.36685149   -2.27947098
     atom   28 type  1   force =     1.88896573   -2.40300678    2.71801952
     atom   29 type  1   force =    -3.86447270   -0.20583574    0.09200680
     atom   30 type  1   force =    -0.20481561    1.60048707    3.36903423
     atom   31 type  1   force =     3.81652621   -1.41438599    1.50763532
     atom   32 type  1   force =     2.76602272    3.32593163    0.57160735
     atom   33 type  1   force =    -0.88424279    0.59198185    3.08612678
     atom   34 type  1   force =    -2.06451289    2.11828791   -1.73274738
     atom   35 type  1   force =     0.68713476    0.19458172   -3.65863139
     atom   36 type  1   force =    -1.65853864   -4.91691732   -1.21384268
     atom   37 type  1   force =     3.59411610    1.85790528   -3.20330398
     atom   38 type  1   force =     2.32302257    0.39430921    0.76034762
     atom   39 type  1   force =    -1.67074597   -0.10819655    2.47968920
     atom   40 type  1   force =     1.02969480   -3.30733769    4.31663781
     atom   41 type  1   force =    -5.05143642    2.16186566    1.02862282
     atom   42 type  1   force =     0.01120921   -0.33770507   -0.15322519
     atom   43 type  1   force =    -2.91547423   -0.26772145    0.12090943
     atom   44 type  1   force =    -2.48630480   -4.98731755    2.02305126
     atom   45 type  2   force =    -2.46319098   -2.57934144    0.98768936
     atom   46 type  2   force =    15.36175899   -0.04507454    8.78190315
     atom   47 type  2   force =    11.75226348    8.73843134    4.68024538
     atom   48 type  2   force =     0.69591770   -8.68281560  -13.55456472
     atom   49 type  2   force =    -0.44097193   -1.02181842   16.02363040
     atom   50 type  2   force =   -13.68034428    2.87688106    2.43691299
     atom   51 type  2   force =    10.09390474  -10.17294043    0.63874403
     atom   52 type  2   force =   -14.36144037   -7.70830781    4.57277882
     atom   53 type  2   force =    -6.64580217   13.90636857   -1.09557014
     atom   54 type  2   force =    -4.09601093    3.73358133  -15.87684959
     atom   55 type  2   force =    -5.36440667   -5.21610388  -10.75644255
     atom   56 type  2   force =   -12.75172322    6.17963730   -7.62305633
     atom   57 type  2   force =    11.09680344    6.61856814   -7.07725777
     atom   58 type  2   force =    12.58596751   -0.79015632   -3.71758521
     atom   59 type  2   force =    -6.24009221   -9.30147381   12.24373781
     atom   60 type  2   force =     9.65165020    4.92587588    0.05802430
     atom   61 type  2   force =    -0.08615476   18.43675511    6.09317687
     atom   62 type  2   force =     8.44323392  -11.80341747   -2.10073927
     atom   63 type  2   force =     4.86858588   11.81884399  -10.06700141
     atom   64 type  2   force =     3.51796422  -12.78830678    7.08088185
     atom   65 type  2   force =    -5.14466688    8.03849062   12.82390544
     atom   66 type  2   force =    -5.16687314  -13.27929244   -4.35481328
     The local contribution  to forces
     atom    1 type  1   force =    -2.65392294   -0.46183917    0.61114331
     atom    2 type  1   force =     2.44085229   -1.96059707    2.00547843
     atom    3 type  1   force =     0.82263915   -0.42652315   -3.76603933
     atom    4 type  1   force =    -2.12749344    2.65361438   -0.42891530
     atom    5 type  1   force =    -3.00973062   -1.97787635   -4.27352186
     atom    6 type  1   force =     0.87357042   -3.69142125   -0.90140551
     atom    7 type  1   force =     1.41478523   -1.84149617    4.35992723
     atom    8 type  1   force =     0.96533874   -0.21949410   -0.05643990
     atom    9 type  1   force =    -1.53026852   -2.40733522   -4.63154312
     atom   10 type  1   force =     0.69266535   -2.26997270   -0.92714319
     atom   11 type  1   force =     5.34555374    1.45594759    1.19049568
     atom   12 type  1   force =     1.87055730   -2.25612187    2.09282168
     atom   13 type  1   force =     1.69886059    2.81406861    0.62401443
     atom   14 type  1   force =    -0.87631362    2.46915200   -3.76677905
     atom   15 type  1   force =     4.91976180   -0.87127708   -0.26230319
     atom   16 type  1   force =     0.10959134   -0.55554056    0.39487331
     atom   17 type  1   force =    -1.58034219   -2.53319836    1.79015139
     atom   18 type  1   force =     3.24990625   -2.95374385    2.86199542
     atom   19 type  1   force =    -2.14474074   -1.31809922    1.65777958
     atom   20 type  1   force =     0.42508820    3.24322471    1.61327453
     atom   21 type  1   force =     2.42054948    1.74036376   -1.17143057
     atom   22 type  1   force =    -2.50144700    0.74561317    0.53575721
     atom   23 type  1   force =    -0.80227730   -1.35478848    2.76412510
     atom   24 type  1   force =     3.24203247    1.49005397    4.21705663
     atom   25 type  1   force =    -4.18895705    0.75879266    2.96514144
     atom   26 type  1   force =    -0.03355223    2.39235500    0.68567787
     atom   27 type  1   force =    -2.35736972    3.26421711    2.22212290
     atom   28 type  1   force =    -1.90040346    2.38285500   -2.63721449
     atom   29 type  1   force =     3.81076497    0.21694504   -0.15775022
     atom   30 type  1   force =     0.23468449   -1.54317339   -3.31008015
     atom   31 type  1   force =    -3.79900392    1.37732905   -1.47471220
     atom   32 type  1   force =    -2.76949968   -3.35952926   -0.54891973
     atom   33 type  1   force =     0.88538562   -0.59379176   -3.07684849
     atom   34 type  1   force =     2.05510392   -2.10913011    1.69123720
     atom   35 type  1   force =    -0.70595644   -0.16231324    3.59290895
     atom   36 type  1   force =     1.57836009    4.81069537    1.19779387
     atom   37 type  1   force =    -3.59542183   -1.85336108    3.20089936
     atom   38 type  1   force =    -2.29277916   -0.42505885   -0.69408606
     atom   39 type  1   force =     1.62664665    0.14768895   -2.47132581
     atom   40 type  1   force =    -1.02209437    3.28952786   -4.27862309
     atom   41 type  1   force =     4.97203473   -2.14523755   -1.04067023
     atom   42 type  1   force =    -0.00378406    0.32258106    0.12838213
     atom   43 type  1   force =     2.90458504    0.27606827   -0.12006277
     atom   44 type  1   force =     2.45051552    4.89348281   -1.96037186
     atom   45 type  2   force =     2.06289023    1.16836237   -0.01856022
     atom   46 type  2   force =   -13.69236136    1.01863376   -9.12773407
     atom   47 type  2   force =   -11.20570621   -9.81843675   -6.13658807
     atom   48 type  2   force =     0.19422755    6.65609687   13.30849560
     atom   49 type  2   force =     0.03650435   -0.97173681  -16.06085816
     atom   50 type  2   force =    14.84110504   -2.87451329   -0.75445364
     atom   51 type  2   force =    -8.61529658   10.74294752   -1.77973620
     atom   52 type  2   force =    14.45155077    6.11272025   -3.75028330
     atom   53 type  2   force =     6.49076354  -14.05134905    2.93397732
     atom   54 type  2   force =     2.88020056   -2.59296398   14.99692799
     atom   55 type  2   force =     4.72792520    5.49473324    9.00323343
     atom   56 type  2   force =    12.12054341   -5.34383950    9.24848134
     atom   57 type  2   force =   -11.39474614   -4.46481685    7.70857346
     atom   58 type  2   force =   -12.42341147    2.84891863    3.19851100
     atom   59 type  2   force =     6.82834636    7.53481086  -11.90092174
     atom   60 type  2   force =   -10.83303044   -5.04722634   -0.82995887
     atom   61 type  2   force =     1.14316268  -16.88092181   -5.64803112
     atom   62 type  2   force =    -6.95015336   12.12162641    3.69424202
     atom   63 type  2   force =    -6.38897904  -11.25837671    9.81012225
     atom   64 type  2   force =    -2.86181948   12.51033063   -8.93930309
     atom   65 type  2   force =     6.34122504   -7.69611279  -11.48115478
     atom   66 type  2   force =     6.51692135   13.45029592    2.89464340
     The core correction contribution to forces
     atom    1 type  1   force =     0.00000000    0.00000000    0.00000000
     atom    2 type  1   force =     0.00000000    0.00000000    0.00000000
     atom    3 type  1   force =     0.00000000    0.00000000    0.00000000
     atom    4 type  1   force =     0.00000000    0.00000000    0.00000000
     atom    5 type  1   force =     0.00000000    0.00000000    0.00000000
     atom    6 type  1   force =     0.00000000    0.00000000    0.00000000
     atom    7 type  1   force =     0.00000000    0.00000000    0.00000000
     atom    8 type  1   force =     0.00000000    0.00000000    0.00000000
     atom    9 type  1   force =     0.00000000    0.00000000    0.00000000
     atom   10 type  1   force =     0.00000000    0.00000000    0.00000000
     atom   11 type  1   force =     0.00000000    0.00000000    0.00000000
     atom   12 type  1   force =     0.00000000    0.00000000    0.00000000
     atom   13 type  1   force =     0.00000000    0.00000000    0.00000000
     atom   14 type  1   force =     0.00000000    0.00000000    0.00000000
     atom   15 type  1   force =     0.00000000    0.00000000    0.00000000
     atom   16 type  1   force =     0.00000000    0.00000000    0.00000000
     atom   17 type  1   force =     0.00000000    0.00000000    0.00000000
     atom   18 type  1   force =     0.00000000    0.00000000    0.00000000
     atom   19 type  1   force =     0.00000000    0.00000000    0.00000000
     atom   20 type  1   force =     0.00000000    0.00000000    0.00000000
     atom   21 type  1   force =     0.00000000    0.00000000    0.00000000
     atom   22 type  1   force =     0.00000000    0.00000000    0.00000000
     atom   23 type  1   force =     0.00000000    0.00000000    0.00000000
     atom   24 type  1   force =     0.00000000    0.00000000    0.00000000
     atom   25 type  1   force =     0.00000000    0.00000000    0.00000000
     atom   26 type  1   force =     0.00000000    0.00000000    0.00000000
     atom   27 type  1   force =     0.00000000    0.00000000    0.00000000
     atom   28 type  1   force =     0.00000000    0.00000000    0.00000000
     atom   29 type  1   force =     0.00000000    0.00000000    0.00000000
     atom   30 type  1   force =     0.00000000    0.00000000    0.00000000
     atom   31 type  1   force =     0.00000000    0.00000000    0.00000000
     atom   32 type  1   force =     0.00000000    0.00000000    0.00000000
     atom   33 type  1   force =     0.00000000    0.00000000    0.00000000
     atom   34 type  1   force =     0.00000000    0.00000000    0.00000000
     atom   35 type  1   force =     0.00000000    0.00000000    0.00000000
     atom   36 type  1   force =     0.00000000    0.00000000    0.00000000
     atom   37 type  1   force =     0.00000000    0.00000000    0.00000000
     atom   38 type  1   force =     0.00000000    0.00000000    0.00000000
     atom   39 type  1   force =     0.00000000    0.00000000    0.00000000
     atom   40 type  1   force =     0.00000000    0.00000000    0.00000000
     atom   41 type  1   force =     0.00000000    0.00000000    0.00000000
     atom   42 type  1   force =     0.00000000    0.00000000    0.00000000
     atom   43 type  1   force =     0.00000000    0.00000000    0.00000000
     atom   44 type  1   force =     0.00000000    0.00000000    0.00000000
     atom   45 type  2   force =    -0.00397589   -0.01530503    0.01020795
     atom   46 type  2   force =     0.01765634    0.00954704   -0.00360685
     atom   47 type  2   force =     0.00590647   -0.01089618   -0.01463302
     atom   48 type  2   force =     0.00846925   -0.02022489   -0.00225103
     atom   49 type  2   force =    -0.00406060   -0.02152029   -0.00043311
     atom   50 type  2   force =     0.01234513   -0.00064153    0.01760161
     atom   51 type  2   force =     0.01470922    0.00660819   -0.01052892
     atom   52 type  2   force =    -0.00027021   -0.01588105    0.00833214
     atom   53 type  2   force =    -0.00165079   -0.00183405    0.01933840
     atom   54 type  2   force =    -0.01305655    0.01044783   -0.00830919
     atom   55 type  2   force =    -0.00539634    0.00192406   -0.01807611
     atom   56 type  2   force =    -0.00602413    0.00857693    0.01671508
     atom   57 type  2   force =    -0.00465501    0.02175211    0.00784230
     atom   58 type  2   force =     0.00098332    0.01985203   -0.00588588
     atom   59 type  2   force =     0.00638990   -0.01793960    0.00282743
     atom   60 type  2   force =    -0.01221461   -0.00130734   -0.00782760
     atom   61 type  2   force =     0.01120001    0.01728176    0.00505873
     atom   62 type  2   force =     0.01448528    0.00305363    0.01619655
     atom   63 type  2   force =    -0.01598611    0.00450670   -0.00091200
     atom   64 type  2   force =     0.00649488   -0.00206901   -0.01998291
     atom   65 type  2   force =     0.01194809    0.00377599    0.01441543
     atom   66 type  2   force =     0.01383591    0.00116020   -0.01465230
     The Hubbard contrib.    to forces
     atom    1 type  1   force =     0.00000000    0.00000000    0.00000000
     atom    2 type  1   force =     0.00000000    0.00000000    0.00000000
     atom    3 type  1   force =     0.00000000    0.00000000    0.00000000
     atom    4 type  1   force =     0.00000000    0.00000000    0.00000000
     atom    5 type  1   force =     0.00000000    0.00000000    0.00000000
     atom    6 type  1   force =     0.00000000    0.00000000    0.00000000
     atom    7 type  1   force =     0.00000000    0.00000000    0.00000000
     atom    8 type  1   force =     0.00000000    0.00000000    0.00000000
     atom    9 type  1   force =     0.00000000    0.00000000    0.00000000
     atom   10 type  1   force =     0.00000000    0.00000000    0.00000000
     atom   11 type  1   force =     0.00000000    0.00000000    0.00000000
     atom   12 type  1   force =     0.00000000    0.00000000    0.00000000
     atom   13 type  1   force =     0.00000000    0.00000000    0.00000000
     atom   14 type  1   force =     0.00000000    0.00000000    0.00000000
     atom   15 type  1   force =     0.00000000    0.00000000    0.00000000
     atom   16 type  1   force =     0.00000000    0.00000000    0.00000000
     atom   17 type  1   force =     0.00000000    0.00000000    0.00000000
     atom   18 type  1   force =     0.00000000    0.00000000    0.00000000
     atom   19 type  1   force =     0.00000000    0.00000000    0.00000000
     atom   20 type  1   force =     0.00000000    0.00000000    0.00000000
     atom   21 type  1   force =     0.00000000    0.00000000    0.00000000
     atom   22 type  1   force =     0.00000000    0.00000000    0.00000000
     atom   23 type  1   force =     0.00000000    0.00000000    0.00000000
     atom   24 type  1   force =     0.00000000    0.00000000    0.00000000
     atom   25 type  1   force =     0.00000000    0.00000000    0.00000000
     atom   26 type  1   force =     0.00000000    0.00000000    0.00000000
     atom   27 type  1   force =     0.00000000    0.00000000    0.00000000
     atom   28 type  1   force =     0.00000000    0.00000000    0.00000000
     atom   29 type  1   force =     0.00000000    0.00000000    0.00000000
     atom   30 type  1   force =     0.00000000    0.00000000    0.00000000
     atom   31 type  1   force =     0.00000000    0.00000000    0.00000000
     atom   32 type  1   force =     0.00000000    0.00000000    0.00000000
     atom   33 type  1   force =     0.00000000    0.00000000    0.00000000
     atom   34 type  1   force =     0.00000000    0.00000000    0.00000000
     atom   35 type  1   force =     0.00000000    0.00000000    0.00000000
     atom   36 type  1   force =     0.00000000    0.00000000    0.00000000
     atom   37 type  1   force =     0.00000000    0.00000000    0.00000000
     atom   38 type  1   force =     0.00000000    0.00000000    0.00000000
     atom   39 type  1   force =     0.00000000    0.00000000    0.00000000
     atom   40 type  1   force =     0.00000000    0.00000000    0.00000000
     atom   41 type  1   force =     0.00000000    0.00000000    0.00000000
     atom   42 type  1   force =     0.00000000    0.00000000    0.00000000
     atom   43 type  1   force =     0.00000000    0.00000000    0.00000000
     atom   44 type  1   force =     0.00000000    0.00000000    0.00000000
     atom   45 type  2   force =     0.00000000    0.00000000    0.00000000
     atom   46 type  2   force =     0.00000000    0.00000000    0.00000000
     atom   47 type  2   force =     0.00000000    0.00000000    0.00000000
     atom   48 type  2   force =     0.00000000    0.00000000    0.00000000
     atom   49 type  2   force =     0.00000000    0.00000000    0.00000000
     atom   50 type  2   force =     0.00000000    0.00000000    0.00000000
     atom   51 type  2   force =     0.00000000    0.00000000    0.00000000
     atom   52 type  2   force =     0.00000000    0.00000000    0.00000000
     atom   53 type  2   force =     0.00000000    0.00000000    0.00000000
     atom   54 type  2   force =     0.00000000    0.00000000    0.00000000
     atom   55 type  2   force =     0.00000000    0.00000000    0.00000000
     atom   56 type  2   force =     0.00000000    0.00000000    0.00000000
     atom   57 type  2   force =     0.00000000    0.00000000    0.00000000
     atom   58 type  2   force =     0.00000000    0.00000000    0.00000000
     atom   59 type  2   force =     0.00000000    0.00000000    0.00000000
     atom   60 type  2   force =     0.00000000    0.00000000    0.00000000
     atom   61 type  2   force =     0.00000000    0.00000000    0.00000000
     atom   62 type  2   force =     0.00000000    0.00000000    0.00000000
     atom   63 type  2   force =     0.00000000    0.00000000    0.00000000
     atom   64 type  2   force =     0.00000000    0.00000000    0.00000000
     atom   65 type  2   force =     0.00000000    0.00000000    0.00000000
     atom   66 type  2   force =     0.00000000    0.00000000    0.00000000
     The SCF correction term to forces
     atom    1 type  1   force =     0.00000365   -0.00000880    0.00000011
     atom    2 type  1   force =     0.00000624   -0.00000471   -0.00000098
     atom    3 type  1   force =     0.00001608    0.00000324   -0.00000594
     atom    4 type  1   force =     0.00001828    0.00001084   -0.00001195
     atom    5 type  1   force =    -0.00000274   -0.00000736   -0.00002410
     atom    6 type  1   force =     0.00001004   -0.00000680   -0.00000806
     atom    7 type  1   force =     0.00000630   -0.00001068   -0.00000195
     atom    8 type  1   force =    -0.00000073   -0.00000085    0.00001163
     atom    9 type  1   force =    -0.00000656   -0.00001816   -0.00000732
     atom   10 type  1   force =     0.00000370   -0.00000597    0.00000821
     atom   11 type  1   force =     0.00001170    0.00000635    0.00000773
     atom   12 type  1   force =     0.00000589   -0.00000124    0.00000803
     atom   13 type  1   force =     0.00001050    0.00000663   -0.00001284
     atom   14 type  1   force =     0.00000785   -0.00000419   -0.00001423
     atom   15 type  1   force =     0.00001065   -0.00001967    0.00000411
     atom   16 type  1   force =    -0.00001053   -0.00001565    0.00000207
     atom   17 type  1   force =     0.00000260    0.00000156    0.00000329
     atom   18 type  1   force =     0.00000663   -0.00000141    0.00000954
     atom   19 type  1   force =    -0.00002131    0.00000711   -0.00001482
     atom   20 type  1   force =    -0.00000984    0.00002892   -0.00001367
     atom   21 type  1   force =     0.00000779    0.00000361   -0.00003425
     atom   22 type  1   force =    -0.00001583    0.00001126   -0.00001157
     atom   23 type  1   force =    -0.00001649   -0.00000273    0.00000758
     atom   24 type  1   force =     0.00001014    0.00001970    0.00002639
     atom   25 type  1   force =    -0.00006397    0.00004858    0.00005038
     atom   26 type  1   force =     0.00003828    0.00007953   -0.00000416
     atom   27 type  1   force =     0.00000801    0.00004374    0.00001744
     atom   28 type  1   force =     0.00000979    0.00004060   -0.00004011
     atom   29 type  1   force =     0.00003108   -0.00003607    0.00002697
     atom   30 type  1   force =    -0.00000169   -0.00005429   -0.00000677
     atom   31 type  1   force =    -0.00000099    0.00000417   -0.00000967
     atom   32 type  1   force =    -0.00000015   -0.00000457   -0.00000206
     atom   33 type  1   force =     0.00001298    0.00002134    0.00000272
     atom   34 type  1   force =     0.00001872    0.00002127    0.00000240
     atom   35 type  1   force =     0.00001839   -0.00001970    0.00003253
     atom   36 type  1   force =     0.00003257    0.00002808    0.00001878
     atom   37 type  1   force =    -0.00000744   -0.00000165    0.00000546
     atom   38 type  1   force =    -0.00000499    0.00001047   -0.00000940
     atom   39 type  1   force =    -0.00000235   -0.00000250   -0.00001008
     atom   40 type  1   force =    -0.00000401    0.00001085   -0.00002437
     atom   41 type  1   force =     0.00001720   -0.00000087    0.00001124
     atom   42 type  1   force =     0.00000302    0.00000527    0.00001650
     atom   43 type  1   force =     0.00001829   -0.00001509   -0.00001206
     atom   44 type  1   force =     0.00001525    0.00001714   -0.00002424
     atom   45 type  2   force =     0.00008274   -0.00013865    0.00001685
     atom   46 type  2   force =     0.00024825    0.00006880   -0.00011588
     atom   47 type  2   force =     0.00007263   -0.00008848   -0.00017107
     atom   48 type  2   force =     0.00013137   -0.00021847   -0.00001816
     atom   49 type  2   force =    -0.00001092   -0.00019271    0.00005541
     atom   50 type  2   force =     0.00013920    0.00005053    0.00012489
     atom   51 type  2   force =     0.00018527    0.00007260   -0.00020708
     atom   52 type  2   force =    -0.00006862   -0.00013389    0.00003317
     atom   53 type  2   force =     0.00006165   -0.00000981    0.00011432
     atom   54 type  2   force =    -0.00015268    0.00015561   -0.00012588
     atom   55 type  2   force =    -0.00014951    0.00004139   -0.00020852
     atom   56 type  2   force =    -0.00004585    0.00010197    0.00015785
     atom   57 type  2   force =    -0.00008060    0.00034116    0.00010494
     atom   58 type  2   force =     0.00007577    0.00031703   -0.00004701
     atom   59 type  2   force =     0.00010616   -0.00030166    0.00005680
     atom   60 type  2   force =    -0.00003453    0.00002434   -0.00007047
     atom   61 type  2   force =     0.00018852    0.00027129    0.00003055
     atom   62 type  2   force =     0.00021043    0.00003668    0.00021742
     atom   63 type  2   force =    -0.00007188    0.00012022   -0.00006006
     atom   64 type  2   force =     0.00001156    0.00000900   -0.00014836
     atom   65 type  2   force =     0.00004923    0.00001894    0.00012918
     atom   66 type  2   force =     0.00016655    0.00003439   -0.00020146

     Total force =     0.456547     Total SCF correction =     0.001150


     Computing stress (Cartesian axis) and pressure


     negative rho (up, down):  5.061E-01 0.000E+00
          total   stress  (Ry/bohr**3)                   (kbar)     P=       -2.82
  -0.00001982   0.00000033   0.00000056           -2.92        0.05        0.08
   0.00000033  -0.00001866   0.00000024            0.05       -2.75        0.04
   0.00000056   0.00000024  -0.00001902            0.08        0.04       -2.80


     init_run     :      8.11s CPU      8.60s WALL (       1 calls)
     electrons    :     82.65s CPU     88.21s WALL (       1 calls)
     forces       :      5.59s CPU      5.90s WALL (       1 calls)
     stress       :     16.61s CPU     17.42s WALL (       1 calls)

     Called by init_run:
     wfcinit      :      3.10s CPU      3.29s WALL (       1 calls)
     potinit      :      1.32s CPU      1.39s WALL (       1 calls)
     hinit0       :      1.03s CPU      1.11s WALL (       1 calls)

     Called by electrons:
     c_bands      :     55.07s CPU     57.91s WALL (      10 calls)
     sum_band     :     15.88s CPU     17.11s WALL (      10 calls)
     v_of_rho     :      6.85s CPU      7.41s WALL (      11 calls)
     newd         :      3.43s CPU      4.40s WALL (      11 calls)
     PAW_pot      :      1.00s CPU      1.00s WALL (      11 calls)
     mix_rho      :      1.21s CPU      1.30s WALL (      10 calls)

     Called by c_bands:
     init_us_2    :      0.83s CPU      0.86s WALL (      21 calls)
     init_us_2:cp :      0.83s CPU      0.86s WALL (      21 calls)
     regterg      :     54.10s CPU     56.94s WALL (      10 calls)

     Called by *egterg:
     rdiaghg      :      0.20s CPU      0.20s WALL (      31 calls)
     h_psi        :     48.96s CPU     51.36s WALL (      32 calls)
     s_psi        :      1.37s CPU      1.38s WALL (      32 calls)
     g_psi        :      0.16s CPU      0.16s WALL (      21 calls)

     Called by h_psi:
     h_psi:calbec :      1.18s CPU      1.19s WALL (      32 calls)
     vloc_psi     :     45.95s CPU     48.33s WALL (      32 calls)
     add_vuspsi   :      1.36s CPU      1.36s WALL (      32 calls)

     General routines
     calbec       :      1.76s CPU      1.78s WALL (      47 calls)
     fft          :      3.93s CPU      4.55s WALL (     119 calls)
     ffts         :      0.27s CPU      0.31s WALL (      10 calls)
     fftw         :     38.75s CPU     41.39s WALL (    2906 calls)

     Parallel routines

     PWSCF        :   1m53.12s CPU   2m 0.34s WALL


   This run was terminated on:   2:58:57  27Mar2024            

=------------------------------------------------------------------------------=
   JOB DONE.
=------------------------------------------------------------------------------=
