
     Program PWSCF v.7.2 starts on 27Mar2024 at 11: 9:59 

     This program is part of the open-source Quantum ESPRESSO suite
     for quantum simulation of materials; please cite
         "P. Giannozzi et al., J. Phys.:Condens. Matter 21 395502 (2009);
         "P. Giannozzi et al., J. Phys.:Condens. Matter 29 465901 (2017);
         "P. Giannozzi et al., J. Chem. Phys. 152 154105 (2020);
          URL http://www.quantum-espresso.org", 
     in publications or presentations arising from this work. More details at
     http://www.quantum-espresso.org/quote

     Parallel version (MPI), running on    32 processors

     MPI processes distributed on     1 nodes
     170102 MiB available memory on the printing compute node when the environment starts

     Reading input from pw-wt-254.in
Warning: card &CELL ignored
Warning: card / ignored

     Current dimensions of program PWSCF are:
     Max number of different atomic species (ntypx) = 10
     Max number of k-points (npk) =  40000
     Max angular momentum in pseudopotentials (lmaxx) =  4
     file O.pbe-n-kjpaw_psl.0.1.UPF: wavefunction(s)  2P renormalized

     IMPORTANT: XC functional enforced from input :
     Exchange-correlation= PBE
                           (   1   4   3   4   0   0   0)
     Any further DFT definition will be discarded
     Please, verify this is what you really want


     gamma-point specific algorithms are used

     R & G space division:  proc/nbgrp/npool/nimage =      32
     Subspace diagonalization in iterative solution of the eigenvalue problem:
     a serial algorithm will be used


     Parallelization info
     --------------------
     sticks:   dense  smooth     PW     G-vecs:    dense   smooth      PW
     Min        1707    1707    426               301015   301015   37634
     Max        1710    1710    428               301034   301034   37648
     Sum       54693   54693  13673              9632757  9632757 1204469

     Using Slab Decomposition



     bravais-lattice index     =            0
     lattice parameter (alat)  =      75.7119  a.u.
     unit-cell volume          =  434002.3113 (a.u.)^3
     number of atoms/cell      =           66
     number of atomic types    =            2
     number of electrons       =       176.00
     number of Kohn-Sham states=           88
     kinetic-energy cutoff     =      30.0000  Ry
     charge density cutoff     =     120.0000  Ry
     scf convergence threshold =      1.0E-06
     mixing beta               =       0.5000
     number of iterations used =            8  plain     mixing
     Exchange-correlation= PBE
                           (   1   4   3   4   0   0   0)

     celldm(1)=  75.711877  celldm(2)=   0.000000  celldm(3)=   0.000000
     celldm(4)=   0.000000  celldm(5)=   0.000000  celldm(6)=   0.000000

     crystal axes: (cart. coord. in units of alat)
               a(1) = (   1.000000   0.000000   0.000000 )  
               a(2) = (   0.000000   1.000000   0.000000 )  
               a(3) = (   0.000000   0.000000   1.000000 )  

     reciprocal axes: (cart. coord. in units 2 pi/alat)
               b(1) = (  1.000000  0.000000  0.000000 )  
               b(2) = (  0.000000  1.000000  0.000000 )  
               b(3) = (  0.000000  0.000000  1.000000 )  


     PseudoPot. # 1 for H  read from file:
     /share/pfaendtnergroup/rverma7/QE_PP/H.pbe-rrkjus_psl.1.0.0.UPF
     MD5 check sum: f52b6d4d1c606e5624b1dc7b2218f220
     Pseudo is Ultrasoft, Zval =  1.0
     Generated using "atomic" code by A. Dal Corso  v.5.1
     Using radial grid of  929 points,  2 beta functions with: 
                l(1) =   0
                l(2) =   0
     Q(r) pseudized with 0 coefficients 


     PseudoPot. # 2 for O  read from file:
     /share/pfaendtnergroup/rverma7/QE_PP/O.pbe-n-kjpaw_psl.0.1.UPF
     MD5 check sum: 0234752ac141de4415c5fc33072bef88
     Pseudo is Projector augmented-wave + core cor, Zval =  6.0
     Generated using "atomic" code by A. Dal Corso  v.5.0.99 svn rev. 10869
     Shape of augmentation charge: BESSEL
     Using radial grid of 1095 points,  4 beta functions with: 
                l(1) =   0
                l(2) =   0
                l(3) =   1
                l(4) =   1
     Q(r) pseudized with 0 coefficients 


     atomic species   valence    mass     pseudopotential
        H              1.00     1.00800     H ( 1.00)
        O              6.00    15.99900     O ( 1.00)

     No symmetry found



   Cartesian axes

     site n.     atom                  positions (alat units)
         1           H   tau(   1) = (   0.3389742   0.3163859   0.3855485  )
         2           H   tau(   2) = (   0.3331586   0.3406215   0.4202920  )
         3           H   tau(   3) = (   0.3421939   0.2140522   0.4661425  )
         4           H   tau(   4) = (   0.3692999   0.2375140   0.4458006  )
         5           H   tau(   5) = (   0.3562211   0.2548858   0.4999875  )
         6           H   tau(   6) = (   0.3159865   0.2446275   0.4887308  )
         7           H   tau(   7) = (   0.2455260   0.2936229   0.3648321  )
         8           H   tau(   8) = (   0.2340447   0.3203295   0.3409460  )
         9           H   tau(   9) = (   0.2922251   0.3048297   0.3997504  )
        10           H   tau(  10) = (   0.2880070   0.2672657   0.3834020  )
        11           H   tau(  11) = (   0.2710346   0.3817047   0.3636840  )
        12           H   tau(  12) = (   0.2897791   0.3451142   0.3741420  )
        13           H   tau(  13) = (   0.2147261   0.1974042   0.3361038  )
        14           H   tau(  14) = (   0.2506427   0.1852490   0.3518532  )
        15           H   tau(  15) = (   0.2178959   0.2034444   0.4781730  )
        16           H   tau(  16) = (   0.2324722   0.2334706   0.4576313  )
        17           H   tau(  17) = (   0.2498440   0.2589043   0.2863347  )
        18           H   tau(  18) = (   0.2605266   0.2991639   0.2859603  )
        19           H   tau(  19) = (   0.3692250   0.2773743   0.3474354  )
        20           H   tau(  20) = (   0.3362536   0.2676401   0.3648571  )
        21           H   tau(  21) = (   0.2971671   0.1100711   0.4618745  )
        22           H   tau(  22) = (   0.3277424   0.1340072   0.4481218  )
        23           H   tau(  23) = (   0.3123924   0.2070386   0.2863846  )
        24           H   tau(  24) = (   0.3079745   0.2471484   0.2937477  )
        25           H   tau(  25) = (   0.2566579   0.1966055   0.4179708  )
        26           H   tau(  26) = (   0.2836391   0.1716461   0.4129290  )
        27           H   tau(  27) = (   0.1835018   0.2425309   0.3775365  )
        28           H   tau(  28) = (   0.2049919   0.2657681   0.3511793  )
        29           H   tau(  29) = (   0.3678273   0.1702983   0.4439037  )
        30           H   tau(  30) = (   0.3766380   0.1458380   0.4144765  )
        31           H   tau(  31) = (   0.3511294   0.3451391   0.4787221  )
        32           H   tau(  32) = (   0.3375265   0.3057032   0.4799950  )
        33           H   tau(  33) = (   0.2273056   0.2916011   0.4551853  )
        34           H   tau(  34) = (   0.2490203   0.2781480   0.4234120  )
        35           H   tau(  35) = (   0.3566704   0.2416823   0.3036316  )
        36           H   tau(  36) = (   0.3985274   0.2324722   0.3043554  )
        37           H   tau(  37) = (   0.2578560   0.1824036   0.2979159  )
        38           H   tau(  38) = (   0.2609510   0.1607138   0.2646200  )
        39           H   tau(  39) = (   0.3728691   0.2925496   0.4462249  )
        40           H   tau(  40) = (   0.3776613   0.2808686   0.4072882  )
        41           H   tau(  41) = (   0.3014851   0.1747410   0.4787470  )
        42           H   tau(  42) = (   0.2786222   0.2057656   0.4662174  )
        43           H   tau(  43) = (   0.2895545   0.2186697   0.3777362  )
        44           H   tau(  44) = (   0.3078497   0.2221390   0.3440160  )
        45           O   tau(  45) = (   0.3222014   0.3339074   0.3983277  )
        46           O   tau(  46) = (   0.3637339   0.2142269   0.4554848  )
        47           O   tau(  47) = (   0.3324348   0.2637714   0.4970423  )
        48           O   tau(  48) = (   0.2260577   0.2985149   0.3484837  )
        49           O   tau(  49) = (   0.2754274   0.2861600   0.3963060  )
        50           O   tau(  50) = (   0.2703357   0.3562711   0.3608386  )
        51           O   tau(  51) = (   0.2347186   0.1837264   0.3315862  )
        52           O   tau(  52) = (   0.2365905   0.2076376   0.4622988  )
        53           O   tau(  53) = (   0.2695869   0.2750281   0.2851367  )
        54           O   tau(  54) = (   0.3557469   0.2839136   0.3681767  )
        55           O   tau(  55) = (   0.3054536   0.1338824   0.4621740  )
        56           O   tau(  56) = (   0.3227256   0.2267565   0.2991639  )
        57           O   tau(  57) = (   0.2725321   0.1894172   0.3999251  )
        58           O   tau(  58) = (   0.1920879   0.2430800   0.3538250  )
        59           O   tau(  59) = (   0.3622863   0.1484088   0.4333209  )
        60           O   tau(  60) = (   0.3524023   0.3239735   0.4655685  )
        61           O   tau(  61) = (   0.2331461   0.2708349   0.4427555  )
        62           O   tau(  62) = (   0.3805316   0.2486460   0.3134157  )
        63           O   tau(  63) = (   0.2711594   0.1792587   0.2760015  )
        64           O   tau(  64) = (   0.3839511   0.2751279   0.4306502  )
        65           O   tau(  65) = (   0.3010109   0.2006989   0.4774491  )
        66           O   tau(  66) = (   0.3009609   0.2363909   0.3641832  )

     number of k points=     1
                       cart. coord. in units 2pi/alat
        k(    1) = (   0.0000000   0.0000000   0.0000000), wk =   2.0000000

     Dense  grid:  4816379 G-vectors     FFT dimensions: ( 270, 270, 270)

     Estimated max dynamical RAM per process >     612.29 MB

     Estimated total dynamical RAM >      19.13 GB

     Check: negative core charge=   -0.000006

     Initial potential from superposition of free atoms

     starting charge     175.9995, renormalised to     176.0000

     negative rho (up, down):  3.701E-01 0.000E+00
     Starting wfcs are  132 randomized atomic wfcs
     Checking if some PAW data can be deallocated... 

     total cpu time spent up to now is        8.7 secs

     Self-consistent Calculation

     iteration #  1     ecut=    30.00 Ry     beta= 0.50
     Davidson diagonalization with overlap
     ethr =  1.00E-02,  avg # of iterations =  2.0

     negative rho (up, down):  4.370E-01 0.000E+00

     total cpu time spent up to now is       17.7 secs

     total energy              =    -965.75809386 Ry
     estimated scf accuracy    <       6.90116962 Ry

     iteration #  2     ecut=    30.00 Ry     beta= 0.50
     Davidson diagonalization with overlap
     ethr =  3.92E-03,  avg # of iterations =  2.0

     negative rho (up, down):  4.567E-01 0.000E+00

     total cpu time spent up to now is       27.1 secs

     total energy              =    -967.70946068 Ry
     estimated scf accuracy    <       1.02608385 Ry

     iteration #  3     ecut=    30.00 Ry     beta= 0.50
     Davidson diagonalization with overlap
     ethr =  5.83E-04,  avg # of iterations =  2.0

     negative rho (up, down):  4.991E-01 0.000E+00

     total cpu time spent up to now is       35.5 secs

     total energy              =    -967.76427163 Ry
     estimated scf accuracy    <       0.13093958 Ry

     iteration #  4     ecut=    30.00 Ry     beta= 0.50
     Davidson diagonalization with overlap
     ethr =  7.44E-05,  avg # of iterations =  3.0

     negative rho (up, down):  5.009E-01 0.000E+00

     total cpu time spent up to now is       45.3 secs

     total energy              =    -967.78829734 Ry
     estimated scf accuracy    <       0.03766127 Ry

     iteration #  5     ecut=    30.00 Ry     beta= 0.50
     Davidson diagonalization with overlap
     ethr =  2.14E-05,  avg # of iterations =  2.0

     negative rho (up, down):  4.998E-01 0.000E+00

     total cpu time spent up to now is       53.1 secs

     total energy              =    -967.78831985 Ry
     estimated scf accuracy    <       0.00808555 Ry

     iteration #  6     ecut=    30.00 Ry     beta= 0.50
     Davidson diagonalization with overlap
     ethr =  4.59E-06,  avg # of iterations =  2.0

     negative rho (up, down):  4.993E-01 0.000E+00

     total cpu time spent up to now is       61.3 secs

     total energy              =    -967.78863312 Ry
     estimated scf accuracy    <       0.00158543 Ry

     iteration #  7     ecut=    30.00 Ry     beta= 0.50
     Davidson diagonalization with overlap
     ethr =  9.01E-07,  avg # of iterations =  2.0

     negative rho (up, down):  4.988E-01 0.000E+00

     total cpu time spent up to now is       69.9 secs

     total energy              =    -967.78872083 Ry
     estimated scf accuracy    <       0.00030054 Ry

     iteration #  8     ecut=    30.00 Ry     beta= 0.50
     Davidson diagonalization with overlap
     ethr =  1.71E-07,  avg # of iterations =  2.0

     negative rho (up, down):  4.988E-01 0.000E+00

     total cpu time spent up to now is       79.3 secs

     total energy              =    -967.78879163 Ry
     estimated scf accuracy    <       0.00001927 Ry

     iteration #  9     ecut=    30.00 Ry     beta= 0.50
     Davidson diagonalization with overlap
     ethr =  1.10E-08,  avg # of iterations =  2.0

     negative rho (up, down):  4.988E-01 0.000E+00

     total cpu time spent up to now is       90.3 secs

     total energy              =    -967.78879096 Ry
     estimated scf accuracy    <       0.00001116 Ry

     iteration # 10     ecut=    30.00 Ry     beta= 0.50
     Davidson diagonalization with overlap
     ethr =  6.34E-09,  avg # of iterations =  2.0

     negative rho (up, down):  4.989E-01 0.000E+00

     total cpu time spent up to now is       98.7 secs

     End of self-consistent calculation

          k = 0.0000 0.0000 0.0000 (602235 PWs)   bands (ev):

   -26.2679 -25.8607 -25.6920 -25.5188 -25.4831 -25.4354 -25.3432 -25.2262
   -25.1554 -25.0897 -24.9701 -24.8545 -24.7818 -24.6953 -24.6173 -24.6026
   -24.3176 -24.1581 -24.1302 -24.0235 -23.8353 -23.7636 -13.8039 -13.6207
   -13.5065 -13.4286 -13.3963 -13.3415 -13.2862 -13.1296 -13.0807 -13.0457
   -12.9271 -12.8630 -12.6735 -12.6340 -12.6091 -12.5490 -12.5203 -12.4431
   -12.3507 -12.0798 -12.0014 -11.7480 -11.3427 -11.1828 -10.8580 -10.5202
   -10.3622 -10.1196  -9.9958  -9.9384  -9.8370  -9.7014  -9.6061  -9.5237
    -9.4232  -9.0977  -8.8016  -8.6582  -8.5341  -8.4769  -8.4487  -8.2936
    -8.1858  -8.0680  -7.9353  -7.8785  -7.8455  -7.7444  -7.6944  -7.5998
    -7.5592  -7.5201  -7.4973  -7.4496  -7.3340  -7.2254  -7.1536  -7.1096
    -6.9283  -6.8764  -6.8016  -6.6765  -6.6185  -6.4725  -6.3610  -6.1460

     highest occupied level (ev):    -6.1460

!    total energy              =    -967.78879165 Ry
     estimated scf accuracy    <       0.00000087 Ry

     The total energy is the sum of the following terms:
     one-electron contribution =   -5838.73905401 Ry
     hartree contribution      =    2954.05292841 Ry
     xc contribution           =    -193.56705687 Ry
     ewald contribution        =    2319.76625543 Ry
     one-center paw contrib.   =    -209.30186461 Ry

     convergence has been achieved in  10 iterations

     negative rho (up, down):  4.989E-01 0.000E+00

     Forces acting on atoms (cartesian axes, Ry/au):

     atom    1 type  1   force =    -0.04505244    0.06021339    0.03859485
     atom    2 type  1   force =    -0.02057714   -0.02953033   -0.03959299
     atom    3 type  1   force =    -0.04374684   -0.00034286    0.00054319
     atom    4 type  1   force =    -0.01008500   -0.03601691    0.00854843
     atom    5 type  1   force =    -0.07545719    0.00102156   -0.01813718
     atom    6 type  1   force =     0.07938779    0.05370459    0.03941676
     atom    7 type  1   force =    -0.03803837    0.00301443   -0.02079565
     atom    8 type  1   force =    -0.01061269    0.01800151   -0.00494197
     atom    9 type  1   force =    -0.00689868   -0.01095852    0.00857202
     atom   10 type  1   force =    -0.03192131    0.03884824    0.02280500
     atom   11 type  1   force =     0.01325334   -0.08362528    0.00028189
     atom   12 type  1   force =    -0.04124956    0.06601636   -0.02818901
     atom   13 type  1   force =     0.00981097    0.01831217    0.01452987
     atom   14 type  1   force =    -0.06544057    0.00047533   -0.04698602
     atom   15 type  1   force =     0.02846410   -0.01368233   -0.01665286
     atom   16 type  1   force =     0.02111674   -0.04257602   -0.00473165
     atom   17 type  1   force =     0.04303870    0.05719812    0.00098486
     atom   18 type  1   force =     0.01960453   -0.08860687    0.00324294
     atom   19 type  1   force =    -0.00224085    0.01074300    0.02539916
     atom   20 type  1   force =     0.03422683    0.02048251    0.02516186
     atom   21 type  1   force =     0.01826720    0.05250539    0.00457687
     atom   22 type  1   force =    -0.04418283    0.00327032    0.03257041
     atom   23 type  1   force =     0.01257073    0.04154320    0.01805584
     atom   24 type  1   force =     0.01283408   -0.04477848    0.00401399
     atom   25 type  1   force =    -0.00402517    0.00500362   -0.02294485
     atom   26 type  1   force =     0.01837513   -0.00331172   -0.01503251
     atom   27 type  1   force =     0.02157959    0.00882112   -0.05159081
     atom   28 type  1   force =    -0.03934491   -0.04994933    0.00810000
     atom   29 type  1   force =    -0.00278350    0.01986218   -0.00882974
     atom   30 type  1   force =     0.02331764   -0.00331370   -0.03219350
     atom   31 type  1   force =     0.00789689   -0.03214682   -0.01203310
     atom   32 type  1   force =     0.06123681    0.05756812   -0.05504293
     atom   33 type  1   force =     0.00851646   -0.03119327   -0.01775642
     atom   34 type  1   force =    -0.00788546   -0.01053937    0.02622448
     atom   35 type  1   force =     0.08209151   -0.01006279    0.01925110
     atom   36 type  1   force =    -0.07169200    0.05655879    0.03020125
     atom   37 type  1   force =     0.00545138   -0.01153688   -0.03606191
     atom   38 type  1   force =    -0.00964008   -0.01967984   -0.00954840
     atom   39 type  1   force =     0.03766310   -0.03481423   -0.05431172
     atom   40 type  1   force =    -0.00656438   -0.00759382    0.01287266
     atom   41 type  1   force =    -0.00110296    0.06199514   -0.00598768
     atom   42 type  1   force =     0.03246481   -0.01713203    0.04040731
     atom   43 type  1   force =     0.00944150    0.00489520    0.02505664
     atom   44 type  1   force =    -0.00346335    0.05758254    0.01686011
     atom   45 type  2   force =     0.07605931   -0.04433661   -0.00680578
     atom   46 type  2   force =     0.07546202    0.01534610   -0.02826015
     atom   47 type  2   force =    -0.01162946   -0.03518591   -0.01332815
     atom   48 type  2   force =     0.06065839   -0.00426072    0.03788963
     atom   49 type  2   force =     0.02354496   -0.02169434   -0.03285141
     atom   50 type  2   force =     0.02128670    0.03404802    0.01679591
     atom   51 type  2   force =     0.05343915   -0.01280165    0.04721006
     atom   52 type  2   force =    -0.05497105    0.06613116   -0.00281489
     atom   53 type  2   force =    -0.05082387    0.02097562   -0.00446365
     atom   54 type  2   force =    -0.02679249   -0.04166312   -0.05187886
     atom   55 type  2   force =     0.02078911   -0.05075549   -0.03914057
     atom   56 type  2   force =    -0.07708724   -0.00017764   -0.03480785
     atom   57 type  2   force =    -0.03044769   -0.01549521    0.04339759
     atom   58 type  2   force =     0.00641151    0.02188598    0.03732938
     atom   59 type  2   force =    -0.01731488   -0.00450046    0.03560072
     atom   60 type  2   force =    -0.08205483   -0.03335498    0.07808696
     atom   61 type  2   force =    -0.00667813    0.03667347    0.00446068
     atom   62 type  2   force =     0.01422993   -0.03835602   -0.04087302
     atom   63 type  2   force =     0.01312364    0.03949410    0.04278740
     atom   64 type  2   force =    -0.02004671    0.02817199    0.04370073
     atom   65 type  2   force =    -0.02695555   -0.03986079   -0.00945031
     atom   66 type  2   force =     0.02119261   -0.05652894   -0.04749503
     The non-local contrib.  to forces
     atom    1 type  1   force =    -0.03934856    0.04113745    0.03244687
     atom    2 type  1   force =    -0.03950728   -0.02571895   -0.08223005
     atom    3 type  1   force =     0.10355041    0.00515905   -0.05165437
     atom    4 type  1   force =    -0.02165352   -0.07639052    0.03342337
     atom    5 type  1   force =    -0.08790837    0.02958750   -0.01210453
     atom    6 type  1   force =     0.05238138    0.05548544    0.02384583
     atom    7 type  1   force =    -0.06442292    0.01681402   -0.05521263
     atom    8 type  1   force =    -0.03599267   -0.09881169    0.03301195
     atom    9 type  1   force =    -0.05954004   -0.06872864   -0.01386068
     atom   10 type  1   force =    -0.03699097    0.05862956    0.04007910
     atom   11 type  1   force =     0.00062619   -0.09098718   -0.00790252
     atom   12 type  1   force =    -0.06139609    0.03840265   -0.04138867
     atom   13 type  1   force =     0.08889538   -0.05908486   -0.01719790
     atom   14 type  1   force =    -0.05694685   -0.00274131   -0.06959471
     atom   15 type  1   force =     0.07645239    0.01825012   -0.06510931
     atom   16 type  1   force =     0.01089247   -0.07328058    0.01396173
     atom   17 type  1   force =     0.07046045    0.06238745   -0.00436668
     atom   18 type  1   force =     0.02836025   -0.08528224   -0.00275903
     atom   19 type  1   force =    -0.04978829    0.02414829    0.07421953
     atom   20 type  1   force =     0.07008609    0.05884565    0.01101491
     atom   21 type  1   force =     0.03363379    0.09097406   -0.00006591
     atom   22 type  1   force =    -0.06695345   -0.00260033    0.04161324
     atom   23 type  1   force =     0.03647167    0.07251290    0.04480307
     atom   24 type  1   force =     0.05117469   -0.07385661    0.01787774
     atom   25 type  1   force =     0.06438069   -0.02890455   -0.07175109
     atom   26 type  1   force =    -0.04867073    0.07769186   -0.05614169
     atom   27 type  1   force =     0.03417714    0.00439588   -0.09008352
     atom   28 type  1   force =    -0.03900404   -0.06844563    0.01135558
     atom   29 type  1   force =    -0.02051305   -0.08927407   -0.04492676
     atom   30 type  1   force =    -0.07138268    0.01510856    0.09517446
     atom   31 type  1   force =     0.00399065   -0.08671600   -0.05175931
     atom   32 type  1   force =     0.03551213    0.04628341   -0.03349694
     atom   33 type  1   force =     0.02524905   -0.08397792   -0.05169794
     atom   34 type  1   force =    -0.04768489   -0.02035915    0.05963570
     atom   35 type  1   force =     0.06328267    0.01577211    0.02493665
     atom   36 type  1   force =    -0.06322766    0.05357337    0.02946389
     atom   37 type  1   force =     0.04277766   -0.01256716   -0.07313812
     atom   38 type  1   force =     0.04748941    0.08875809    0.05691883
     atom   39 type  1   force =     0.03539418   -0.05786348   -0.05479392
     atom   40 type  1   force =     0.02369233   -0.02066877    0.09721481
     atom   41 type  1   force =    -0.00303087    0.08600005   -0.00525366
     atom   42 type  1   force =     0.07956189   -0.01981013    0.03850617
     atom   43 type  1   force =     0.04427465    0.06809708   -0.05295381
     atom   44 type  1   force =    -0.02525802    0.04957601    0.07196938
     atom   45 type  2   force =     1.39466517   -0.58168519    0.77443331
     atom   46 type  2   force =    -1.15658177    1.29674856    0.15785914
     atom   47 type  2   force =     0.67436492   -1.71563112   -0.48760429
     atom   48 type  2   force =     1.61684286    1.05754329    0.36983687
     atom   49 type  2   force =     1.49529181    0.01996468   -0.43070170
     atom   50 type  2   force =     1.31209053    1.16824540    1.05357347
     atom   51 type  2   force =    -0.19176268    1.17578629    1.56858812
     atom   52 type  2   force =    -1.44348260    1.05711080    0.81085306
     atom   53 type  2   force =    -2.04852509    0.53209357    0.16320033
     atom   54 type  2   force =    -0.48830392   -1.13408724   -1.35921173
     atom   55 type  2   force =     0.62333850   -1.66578786   -0.82970193
     atom   56 type  2   force =    -1.45799823    0.10102222   -1.15381854
     atom   57 type  2   force =    -0.22007859   -0.63577517    1.94127057
     atom   58 type  2   force =     0.22542798    1.21862055    1.63827310
     atom   59 type  2   force =     1.31261729    1.10532319   -0.75165758
     atom   60 type  2   force =    -0.95935259    0.54905327    1.71141648
     atom   61 type  2   force =     0.44922116    1.72447685   -0.00236288
     atom   62 type  2   force =    -0.05288331   -1.46056943   -1.12166211
     atom   63 type  2   force =    -1.47882209   -1.24059907    0.47657781
     atom   64 type  2   force =    -1.30918354    1.39516148   -0.53735155
     atom   65 type  2   force =    -1.19865707   -1.13134231   -0.66266384
     atom   66 type  2   force =    -0.23284307   -1.68259779   -0.31832309
     The ionic contribution  to forces
     atom    1 type  1   force =     2.48942364    1.06381109   -1.36910640
     atom    2 type  1   force =     1.78901098    3.39857974    2.92479746
     atom    3 type  1   force =    -1.33490926   -0.72611323    2.64507849
     atom    4 type  1   force =     2.42496238    1.54299401   -0.25199964
     atom    5 type  1   force =     4.00261689   -0.68423369    2.94507165
     atom    6 type  1   force =    -1.76394267   -1.09386214    1.60651146
     atom    7 type  1   force =     0.23572126    0.67149340    0.86633038
     atom    8 type  1   force =    -0.73078052    4.60732296   -2.30305428
     atom    9 type  1   force =     1.08118660    3.18179772    1.12537025
     atom   10 type  1   force =     0.71101107   -0.92391153   -0.97435526
     atom   11 type  1   force =    -0.44197206    5.41714459   -0.12071727
     atom   12 type  1   force =     1.39850341    1.53493443    0.47526940
     atom   13 type  1   force =    -4.47894524    0.32882057   -0.40247606
     atom   14 type  1   force =     0.62868112   -1.77390072    1.41704987
     atom   15 type  1   force =    -4.33280927   -1.43997262    3.70825367
     atom   16 type  1   force =    -2.30088701    1.78567617    1.34861607
     atom   17 type  1   force =    -3.42816495   -1.58258623   -2.05788436
     atom   18 type  1   force =    -1.50302429    4.09308086   -2.05571206
     atom   19 type  1   force =     3.55148813    0.49553091   -3.09118592
     atom   20 type  1   force =    -0.61418360   -1.20990243   -1.07568233
     atom   21 type  1   force =    -1.45320560   -5.16126764    0.75216422
     atom   22 type  1   force =     2.07973414   -2.53180833   -0.66643841
     atom   23 type  1   force =    -0.09555109   -3.24178416   -3.41195238
     atom   24 type  1   force =    -0.87806021    2.37805779   -2.76376998
     atom   25 type  1   force =    -3.24391667   -0.58561116    2.12774177
     atom   26 type  1   force =     1.08393111   -4.43590435    1.38609408
     atom   27 type  1   force =    -3.63248609   -0.35804093    3.07818901
     atom   28 type  1   force =    -1.42366481    1.97884855   -0.97774223
     atom   29 type  1   force =     2.58449799    0.83514354    1.68606440
     atom   30 type  1   force =     3.71517969   -2.10712578   -3.25505414
     atom   31 type  1   force =     0.54040924    4.68152306    3.13284098
     atom   32 type  1   force =    -1.04352239    0.31078193    3.01290133
     atom   33 type  1   force =    -2.50270670    3.98253164    3.26115548
     atom   34 type  1   force =    -0.41348504    1.53414269   -0.26183027
     atom   35 type  1   force =     0.20200052   -0.42540078   -2.66641284
     atom   36 type  1   force =     4.13143262   -2.29380295   -2.26670310
     atom   37 type  1   force =    -1.70258182   -1.10448503    0.24399707
     atom   38 type  1   force =    -1.83632198   -4.14012459   -3.45635129
     atom   39 type  1   force =     1.15158037    2.42211944    2.35035970
     atom   40 type  1   force =     1.88557676    1.19700737   -2.49351675
     atom   41 type  1   force =    -0.14779178   -3.72122233    2.40406040
     atom   42 type  1   force =    -2.55679736   -0.05439036    0.55696977
     atom   43 type  1   force =    -0.98835651   -2.66574271    0.94855551
     atom   44 type  1   force =     1.29542920   -2.75597932   -2.84605075
     atom   45 type  2   force =     2.45520435   15.64086562    0.11031237
     atom   46 type  2   force =    13.58861780   -6.53022017    5.22941804
     atom   47 type  2   force =     0.57762750    5.93099220   15.43821046
     atom   48 type  2   force =   -13.72985285    6.78536925   -6.28751398
     atom   49 type  2   force =    -6.42056889    6.01570080    3.56766418
     atom   50 type  2   force =    -5.56951137   13.44815391   -5.87860934
     atom   51 type  2   force =    -8.34339136  -11.58616853   -7.03840636
     atom   52 type  2   force =    -9.66773328   -7.23521150    8.02931489
     atom   53 type  2   force =    -0.17665565    4.74053508  -13.70115120
     atom   54 type  2   force =    11.58322099    7.33412933   -3.40091955
     atom   55 type  2   force =    -2.79137649  -11.54225387    7.40151508
     atom   56 type  2   force =     6.94411551   -4.59045365  -10.52766220
     atom   57 type  2   force =    -3.73741895  -10.18248225   -3.21751150
     atom   58 type  2   force =   -15.23086081   -3.55168683   -5.25326272
     atom   59 type  2   force =     7.39642270  -12.93703044    0.88313080
     atom   60 type  2   force =     6.44339202   10.88852912    6.86321674
     atom   61 type  2   force =   -12.14607601    3.15182892    9.00520971
     atom   62 type  2   force =    13.43939476    1.88237225   -7.06798387
     atom   63 type  2   force =     1.05869333   -6.36515313  -12.67398434
     atom   64 type  2   force =    16.80760395    0.69714136    3.63380760
     atom   65 type  2   force =     0.64154791   -3.16325144   13.38977331
     atom   66 type  2   force =     2.74329462   -1.25587545   -3.74001483
     The local contribution  to forces
     atom    1 type  1   force =    -2.49509493   -1.04474003    1.37521911
     atom    2 type  1   force =    -1.77004270   -3.40238361   -2.88217624
     atom    3 type  1   force =     1.18758142    0.72064813   -2.59289459
     atom    4 type  1   force =    -2.41338847   -1.50256111    0.22708050
     atom    5 type  1   force =    -3.99012145    0.65566137   -2.95114871
     atom    6 type  1   force =     1.79097126    1.09206846   -1.59099474
     atom    7 type  1   force =    -0.20929365   -0.68527078   -0.83194379
     atom    8 type  1   force =     0.75621151   -4.49047229    2.26506175
     atom    9 type  1   force =    -1.02850174   -3.12399862   -1.10297682
     atom   10 type  1   force =    -0.70590478    0.90413837    0.95703139
     atom   11 type  1   force =     0.45462264   -5.40975970    0.12886627
     atom   12 type  1   force =    -1.37833511   -1.50731658   -0.46210582
     atom   13 type  1   force =     4.39986271   -0.25139929    0.43418049
     atom   14 type  1   force =    -0.63713308    1.77713330   -1.39444892
     atom   15 type  1   force =     4.28481682    1.40805609   -3.65981343
     atom   16 type  1   force =     2.31112104   -1.75495432   -1.36733167
     atom   17 type  1   force =     3.40065457    1.57734174    2.06320438
     atom   18 type  1   force =     1.49422596   -4.09628056    2.06168411
     atom   19 type  1   force =    -3.50391065   -0.50893768    3.04231737
     atom   20 type  1   force =     0.57833962    1.17153766    1.08979491
     atom   21 type  1   force =     1.43785417    5.12278348   -0.74756329
     atom   22 type  1   force =    -2.05695158    2.53766781    0.65735086
     atom   23 type  1   force =     0.07166200    3.21078584    3.38514817
     atom   24 type  1   force =     0.83973851   -2.34895861    2.74986648
     atom   25 type  1   force =     3.17553012    0.61952005   -2.07895740
     atom   26 type  1   force =    -1.01686265    4.35489750   -1.34499957
     atom   27 type  1   force =     3.61989717    0.36247946   -3.03968151
     atom   28 type  1   force =     1.42336308   -1.96031237    0.97446272
     atom   29 type  1   force =    -2.56672553   -0.72597375   -1.65000135
     atom   30 type  1   force =    -3.62041748    2.08871289    3.12760316
     atom   31 type  1   force =    -0.53648760   -4.62692540   -3.09313541
     atom   32 type  1   force =     1.06925922   -0.29949703   -3.03447949
     atom   33 type  1   force =     2.48599172   -3.92970348   -3.22723801
     atom   34 type  1   force =     0.45330875   -1.52429301    0.22837688
     atom   35 type  1   force =    -0.18315643    0.39957319    2.66068233
     atom   36 type  1   force =    -4.13985587    2.29677728    2.26739139
     atom   37 type  1   force =     1.66525995    1.10552355   -0.20693291
     atom   38 type  1   force =     1.77918764    4.03164869    3.38982258
     atom   39 type  1   force =    -1.14931272   -2.39904855   -2.34990378
     atom   40 type  1   force =    -1.91583202   -1.18391045    2.40911369
     atom   41 type  1   force =     0.14972842    3.69721672   -2.40483473
     atom   42 type  1   force =     2.50971662    0.05707376   -0.55511818
     atom   43 type  1   force =     0.95353819    2.60252608   -0.87057896
     atom   44 type  1   force =    -1.27361175    2.76396396    2.79089707
     atom   45 type  2   force =    -3.75853051  -15.10947894   -0.88364566
     atom   46 type  2   force =   -12.36759145    5.26241687   -5.41443375
     atom   47 type  2   force =    -1.25673895   -4.26869510  -14.96865968
     atom   48 type  2   force =    12.18950204   -7.83569185    5.95877551
     atom   49 type  2   force =     4.96297240   -6.05737374   -3.17373042
     atom   50 type  2   force =     4.29220581  -14.56957527    4.85301776
     atom   51 type  2   force =     8.58682582   10.40978669    5.53337881
     atom   52 type  2   force =    11.04152459    6.25464616   -8.83439541
     atom   53 type  2   force =     2.15260118   -5.24566171   13.53485729
     atom   54 type  2   force =   -11.12673838   -6.25212257    4.69451782
     atom   55 type  2   force =     2.19478576   13.13933854   -6.61890482
     atom   56 type  2   force =    -5.57791141    4.48983717   11.63458332
     atom   57 type  2   force =     3.92474482   10.79508898    1.33929078
     atom   58 type  2   force =    15.01410641    2.36770984    3.67005549
     atom   59 type  2   force =    -8.71305920   11.83776648   -0.10359201
     atom   60 type  2   force =    -5.57684786  -11.46517304   -8.47827368
     atom   61 type  2   force =    11.69424028   -4.82229772   -8.99789721
     atom   62 type  2   force =   -13.37129989   -0.47595863    8.13734312
     atom   63 type  2   force =     0.41775480    7.63249116   12.24497475
     atom   64 type  2   force =   -15.53090650   -2.05020520   -3.05840695
     atom   65 type  2   force =     0.51796656    4.24340789  -12.74288349
     atom   66 type  2   force =    -2.49123000    2.86568391    4.00683104
     The core correction contribution to forces
     atom    1 type  1   force =     0.00000000    0.00000000    0.00000000
     atom    2 type  1   force =     0.00000000    0.00000000    0.00000000
     atom    3 type  1   force =     0.00000000    0.00000000    0.00000000
     atom    4 type  1   force =     0.00000000    0.00000000    0.00000000
     atom    5 type  1   force =     0.00000000    0.00000000    0.00000000
     atom    6 type  1   force =     0.00000000    0.00000000    0.00000000
     atom    7 type  1   force =     0.00000000    0.00000000    0.00000000
     atom    8 type  1   force =     0.00000000    0.00000000    0.00000000
     atom    9 type  1   force =     0.00000000    0.00000000    0.00000000
     atom   10 type  1   force =     0.00000000    0.00000000    0.00000000
     atom   11 type  1   force =     0.00000000    0.00000000    0.00000000
     atom   12 type  1   force =     0.00000000    0.00000000    0.00000000
     atom   13 type  1   force =     0.00000000    0.00000000    0.00000000
     atom   14 type  1   force =     0.00000000    0.00000000    0.00000000
     atom   15 type  1   force =     0.00000000    0.00000000    0.00000000
     atom   16 type  1   force =     0.00000000    0.00000000    0.00000000
     atom   17 type  1   force =     0.00000000    0.00000000    0.00000000
     atom   18 type  1   force =     0.00000000    0.00000000    0.00000000
     atom   19 type  1   force =     0.00000000    0.00000000    0.00000000
     atom   20 type  1   force =     0.00000000    0.00000000    0.00000000
     atom   21 type  1   force =     0.00000000    0.00000000    0.00000000
     atom   22 type  1   force =     0.00000000    0.00000000    0.00000000
     atom   23 type  1   force =     0.00000000    0.00000000    0.00000000
     atom   24 type  1   force =     0.00000000    0.00000000    0.00000000
     atom   25 type  1   force =     0.00000000    0.00000000    0.00000000
     atom   26 type  1   force =     0.00000000    0.00000000    0.00000000
     atom   27 type  1   force =     0.00000000    0.00000000    0.00000000
     atom   28 type  1   force =     0.00000000    0.00000000    0.00000000
     atom   29 type  1   force =     0.00000000    0.00000000    0.00000000
     atom   30 type  1   force =     0.00000000    0.00000000    0.00000000
     atom   31 type  1   force =     0.00000000    0.00000000    0.00000000
     atom   32 type  1   force =     0.00000000    0.00000000    0.00000000
     atom   33 type  1   force =     0.00000000    0.00000000    0.00000000
     atom   34 type  1   force =     0.00000000    0.00000000    0.00000000
     atom   35 type  1   force =     0.00000000    0.00000000    0.00000000
     atom   36 type  1   force =     0.00000000    0.00000000    0.00000000
     atom   37 type  1   force =     0.00000000    0.00000000    0.00000000
     atom   38 type  1   force =     0.00000000    0.00000000    0.00000000
     atom   39 type  1   force =     0.00000000    0.00000000    0.00000000
     atom   40 type  1   force =     0.00000000    0.00000000    0.00000000
     atom   41 type  1   force =     0.00000000    0.00000000    0.00000000
     atom   42 type  1   force =     0.00000000    0.00000000    0.00000000
     atom   43 type  1   force =     0.00000000    0.00000000    0.00000000
     atom   44 type  1   force =     0.00000000    0.00000000    0.00000000
     atom   45 type  2   force =    -0.01515872    0.00584549   -0.00790351
     atom   46 type  2   force =     0.01077215   -0.01329753   -0.00107889
     atom   47 type  2   force =    -0.00672216    0.01796523    0.00463610
     atom   48 type  2   force =    -0.01547675   -0.01130263   -0.00309846
     atom   49 type  2   force =    -0.01404032    0.00012300    0.00379694
     atom   50 type  2   force =    -0.01343105   -0.01266050   -0.01116668
     atom   51 type  2   force =     0.00178927   -0.01208696   -0.01619677
     atom   52 type  2   force =     0.01456747   -0.01023733   -0.00847626
     atom   53 type  2   force =     0.02142799   -0.00588009   -0.00138190
     atom   54 type  2   force =     0.00497746    0.01029558    0.01369838
     atom   55 type  2   force =    -0.00598032    0.01771860    0.00785226
     atom   56 type  2   force =     0.01465500   -0.00061635    0.01205436
     atom   57 type  2   force =     0.00228134    0.00761358   -0.01943408
     atom   58 type  2   force =    -0.00227111   -0.01261480   -0.01745751
     atom   59 type  2   force =    -0.01307859   -0.01042534    0.00755312
     atom   60 type  2   force =     0.01068046   -0.00572494   -0.01814906
     atom   61 type  2   force =    -0.00401935   -0.01705709   -0.00049229
     atom   62 type  2   force =    -0.00092153    0.01567781    0.01130603
     atom   63 type  2   force =     0.01531315    0.01257778   -0.00478703
     atom   64 type  2   force =     0.01225263   -0.01376379    0.00554314
     atom   65 type  2   force =     0.01205248    0.01127572    0.00619638
     atom   66 type  2   force =     0.00193819    0.01600656    0.00395662
     The Hubbard contrib.    to forces
     atom    1 type  1   force =     0.00000000    0.00000000    0.00000000
     atom    2 type  1   force =     0.00000000    0.00000000    0.00000000
     atom    3 type  1   force =     0.00000000    0.00000000    0.00000000
     atom    4 type  1   force =     0.00000000    0.00000000    0.00000000
     atom    5 type  1   force =     0.00000000    0.00000000    0.00000000
     atom    6 type  1   force =     0.00000000    0.00000000    0.00000000
     atom    7 type  1   force =     0.00000000    0.00000000    0.00000000
     atom    8 type  1   force =     0.00000000    0.00000000    0.00000000
     atom    9 type  1   force =     0.00000000    0.00000000    0.00000000
     atom   10 type  1   force =     0.00000000    0.00000000    0.00000000
     atom   11 type  1   force =     0.00000000    0.00000000    0.00000000
     atom   12 type  1   force =     0.00000000    0.00000000    0.00000000
     atom   13 type  1   force =     0.00000000    0.00000000    0.00000000
     atom   14 type  1   force =     0.00000000    0.00000000    0.00000000
     atom   15 type  1   force =     0.00000000    0.00000000    0.00000000
     atom   16 type  1   force =     0.00000000    0.00000000    0.00000000
     atom   17 type  1   force =     0.00000000    0.00000000    0.00000000
     atom   18 type  1   force =     0.00000000    0.00000000    0.00000000
     atom   19 type  1   force =     0.00000000    0.00000000    0.00000000
     atom   20 type  1   force =     0.00000000    0.00000000    0.00000000
     atom   21 type  1   force =     0.00000000    0.00000000    0.00000000
     atom   22 type  1   force =     0.00000000    0.00000000    0.00000000
     atom   23 type  1   force =     0.00000000    0.00000000    0.00000000
     atom   24 type  1   force =     0.00000000    0.00000000    0.00000000
     atom   25 type  1   force =     0.00000000    0.00000000    0.00000000
     atom   26 type  1   force =     0.00000000    0.00000000    0.00000000
     atom   27 type  1   force =     0.00000000    0.00000000    0.00000000
     atom   28 type  1   force =     0.00000000    0.00000000    0.00000000
     atom   29 type  1   force =     0.00000000    0.00000000    0.00000000
     atom   30 type  1   force =     0.00000000    0.00000000    0.00000000
     atom   31 type  1   force =     0.00000000    0.00000000    0.00000000
     atom   32 type  1   force =     0.00000000    0.00000000    0.00000000
     atom   33 type  1   force =     0.00000000    0.00000000    0.00000000
     atom   34 type  1   force =     0.00000000    0.00000000    0.00000000
     atom   35 type  1   force =     0.00000000    0.00000000    0.00000000
     atom   36 type  1   force =     0.00000000    0.00000000    0.00000000
     atom   37 type  1   force =     0.00000000    0.00000000    0.00000000
     atom   38 type  1   force =     0.00000000    0.00000000    0.00000000
     atom   39 type  1   force =     0.00000000    0.00000000    0.00000000
     atom   40 type  1   force =     0.00000000    0.00000000    0.00000000
     atom   41 type  1   force =     0.00000000    0.00000000    0.00000000
     atom   42 type  1   force =     0.00000000    0.00000000    0.00000000
     atom   43 type  1   force =     0.00000000    0.00000000    0.00000000
     atom   44 type  1   force =     0.00000000    0.00000000    0.00000000
     atom   45 type  2   force =     0.00000000    0.00000000    0.00000000
     atom   46 type  2   force =     0.00000000    0.00000000    0.00000000
     atom   47 type  2   force =     0.00000000    0.00000000    0.00000000
     atom   48 type  2   force =     0.00000000    0.00000000    0.00000000
     atom   49 type  2   force =     0.00000000    0.00000000    0.00000000
     atom   50 type  2   force =     0.00000000    0.00000000    0.00000000
     atom   51 type  2   force =     0.00000000    0.00000000    0.00000000
     atom   52 type  2   force =     0.00000000    0.00000000    0.00000000
     atom   53 type  2   force =     0.00000000    0.00000000    0.00000000
     atom   54 type  2   force =     0.00000000    0.00000000    0.00000000
     atom   55 type  2   force =     0.00000000    0.00000000    0.00000000
     atom   56 type  2   force =     0.00000000    0.00000000    0.00000000
     atom   57 type  2   force =     0.00000000    0.00000000    0.00000000
     atom   58 type  2   force =     0.00000000    0.00000000    0.00000000
     atom   59 type  2   force =     0.00000000    0.00000000    0.00000000
     atom   60 type  2   force =     0.00000000    0.00000000    0.00000000
     atom   61 type  2   force =     0.00000000    0.00000000    0.00000000
     atom   62 type  2   force =     0.00000000    0.00000000    0.00000000
     atom   63 type  2   force =     0.00000000    0.00000000    0.00000000
     atom   64 type  2   force =     0.00000000    0.00000000    0.00000000
     atom   65 type  2   force =     0.00000000    0.00000000    0.00000000
     atom   66 type  2   force =     0.00000000    0.00000000    0.00000000
     The SCF correction term to forces
     atom    1 type  1   force =    -0.00000933    0.00001253   -0.00000380
     atom    2 type  1   force =    -0.00001488    0.00000014   -0.00002324
     atom    3 type  1   force =     0.00005386   -0.00002916   -0.00002540
     atom    4 type  1   force =     0.00001786   -0.00005163    0.00000513
     atom    5 type  1   force =    -0.00002101    0.00001404    0.00000534
     atom    6 type  1   force =     0.00000107    0.00002047    0.00001515
     atom    7 type  1   force =    -0.00001979   -0.00001457   -0.00000868
     atom    8 type  1   force =    -0.00002774   -0.00002981   -0.00000046
     atom    9 type  1   force =    -0.00002024   -0.00002133    0.00000020
     atom   10 type  1   force =    -0.00001337   -0.00000052    0.00001069
     atom   11 type  1   force =    -0.00000018   -0.00001534   -0.00000365
     atom   12 type  1   force =     0.00000149    0.00000350   -0.00000299
     atom   13 type  1   force =     0.00002137   -0.00001660   -0.00001573
     atom   14 type  1   force =    -0.00001851   -0.00000829   -0.00003134
     atom   15 type  1   force =     0.00002742   -0.00000827   -0.00002286
     atom   16 type  1   force =     0.00001350   -0.00000964   -0.00001685
     atom   17 type  1   force =     0.00011188    0.00006281   -0.00000755
     atom   18 type  1   force =     0.00006586   -0.00011730   -0.00000916
     atom   19 type  1   force =    -0.00000678    0.00000913    0.00000910
     atom   20 type  1   force =     0.00000798    0.00000927   -0.00000471
     atom   21 type  1   force =     0.00000811    0.00002314    0.00000278
     atom   22 type  1   force =     0.00001133    0.00001882    0.00000564
     atom   23 type  1   force =     0.00001142    0.00003627    0.00001791
     atom   24 type  1   force =     0.00000434   -0.00001340    0.00000068
     atom   25 type  1   force =     0.00000396    0.00000692   -0.00001720
     atom   26 type  1   force =     0.00000065    0.00001091   -0.00002439
     atom   27 type  1   force =     0.00001463   -0.00000564   -0.00005387
     atom   28 type  1   force =    -0.00001588   -0.00003224   -0.00001514
     atom   29 type  1   force =    -0.00001965   -0.00002588   -0.00000511
     atom   30 type  1   force =    -0.00003861   -0.00000172    0.00004395
     atom   31 type  1   force =     0.00000786   -0.00002084   -0.00001843
     atom   32 type  1   force =     0.00001110    0.00000746   -0.00000689
     atom   33 type  1   force =     0.00000565   -0.00003586   -0.00001502
     atom   34 type  1   force =    -0.00000102   -0.00002226    0.00000310
     atom   35 type  1   force =    -0.00001199    0.00000033    0.00000589
     atom   36 type  1   force =    -0.00001783    0.00001873    0.00001000
     atom   37 type  1   force =     0.00001884   -0.00000060   -0.00002702
     atom   38 type  1   force =     0.00002810    0.00004560    0.00002241
     atom   39 type  1   force =     0.00002454   -0.00001399   -0.00001278
     atom   40 type  1   force =     0.00002181   -0.00001432    0.00002184
     atom   41 type  1   force =     0.00001453    0.00000835    0.00000124
     atom   42 type  1   force =     0.00000692    0.00000234    0.00001049
     atom   43 type  1   force =     0.00000842    0.00002240   -0.00000517
     atom   44 type  1   force =     0.00000048    0.00002954    0.00000534
     atom   45 type  2   force =    -0.00009771    0.00012405   -0.00004136
     atom   46 type  2   force =     0.00026855   -0.00029399   -0.00006377
     atom   47 type  2   force =    -0.00013751    0.00019053    0.00005019
     atom   48 type  2   force =    -0.00033364   -0.00017112   -0.00014938
     atom   49 type  2   force =    -0.00008679   -0.00010144    0.00008052
     atom   50 type  2   force =    -0.00004396   -0.00010788   -0.00005837
     atom   51 type  2   force =     0.00000135   -0.00011149   -0.00019281
     atom   52 type  2   force =     0.00017604   -0.00016933   -0.00015024
     atom   53 type  2   force =     0.00035097   -0.00010358   -0.00002724
     atom   54 type  2   force =     0.00007462    0.00012942   -0.00000285
     atom   55 type  2   force =     0.00004491    0.00023674    0.00005978
     atom   56 type  2   force =     0.00007515    0.00004063   -0.00000386
     atom   57 type  2   force =     0.00004695    0.00006730   -0.00025726
     atom   58 type  2   force =     0.00003231   -0.00013513   -0.00031806
     atom   59 type  2   force =    -0.00019381   -0.00012671    0.00012732
     atom   60 type  2   force =     0.00009640   -0.00003175   -0.00016261
     atom   61 type  2   force =    -0.00002097   -0.00026985   -0.00003572
     atom   62 type  2   force =    -0.00003684    0.00012963    0.00008474
     atom   63 type  2   force =     0.00020771    0.00018500   -0.00003286
     atom   64 type  2   force =     0.00021000   -0.00015421    0.00006942
     atom   65 type  2   force =     0.00015784    0.00005700    0.00008825
     atom   66 type  2   force =     0.00005612    0.00026148    0.00001616

     Total force =     0.494980     Total SCF correction =     0.001244


     Computing stress (Cartesian axis) and pressure


     negative rho (up, down):  4.989E-01 0.000E+00
          total   stress  (Ry/bohr**3)                   (kbar)     P=       -2.91
  -0.00001940   0.00000001  -0.00000029           -2.85        0.00       -0.04
   0.00000001  -0.00002078  -0.00000024            0.00       -3.06       -0.04
  -0.00000029  -0.00000024  -0.00001922           -0.04       -0.04       -2.83


     init_run     :      8.07s CPU      8.54s WALL (       1 calls)
     electrons    :     83.89s CPU     90.00s WALL (       1 calls)
     forces       :      5.55s CPU      5.87s WALL (       1 calls)
     stress       :     16.85s CPU     17.24s WALL (       1 calls)

     Called by init_run:
     wfcinit      :      3.09s CPU      3.28s WALL (       1 calls)
     potinit      :      1.32s CPU      1.38s WALL (       1 calls)
     hinit0       :      0.96s CPU      1.05s WALL (       1 calls)

     Called by electrons:
     c_bands      :     56.15s CPU     59.22s WALL (      10 calls)
     sum_band     :     15.96s CPU     17.42s WALL (      10 calls)
     v_of_rho     :      6.91s CPU      7.47s WALL (      11 calls)
     newd         :      3.45s CPU      4.43s WALL (      11 calls)
     PAW_pot      :      1.00s CPU      1.00s WALL (      11 calls)
     mix_rho      :      1.25s CPU      1.39s WALL (      10 calls)

     Called by c_bands:
     init_us_2    :      0.82s CPU      0.85s WALL (      21 calls)
     init_us_2:cp :      0.82s CPU      0.85s WALL (      21 calls)
     regterg      :     55.16s CPU     58.22s WALL (      10 calls)

     Called by *egterg:
     rdiaghg      :      0.20s CPU      0.20s WALL (      31 calls)
     h_psi        :     49.89s CPU     52.52s WALL (      32 calls)
     s_psi        :      1.36s CPU      1.37s WALL (      32 calls)
     g_psi        :      0.16s CPU      0.16s WALL (      21 calls)

     Called by h_psi:
     h_psi:calbec :      1.23s CPU      1.24s WALL (      32 calls)
     vloc_psi     :     46.85s CPU     49.45s WALL (      32 calls)
     add_vuspsi   :      1.35s CPU      1.36s WALL (      32 calls)

     General routines
     calbec       :      1.82s CPU      1.84s WALL (      47 calls)
     fft          :      4.08s CPU      4.68s WALL (     119 calls)
     ffts         :      0.28s CPU      0.32s WALL (      10 calls)
     fftw         :     40.20s CPU     43.22s WALL (    2894 calls)

     Parallel routines

     PWSCF        :   1m54.48s CPU   2m 1.85s WALL


   This run was terminated on:  11:12: 1  27Mar2024            

=------------------------------------------------------------------------------=
   JOB DONE.
=------------------------------------------------------------------------------=
