
     Program PWSCF v.7.2 starts on 27Mar2024 at  2:48:37 

     This program is part of the open-source Quantum ESPRESSO suite
     for quantum simulation of materials; please cite
         "P. Giannozzi et al., J. Phys.:Condens. Matter 21 395502 (2009);
         "P. Giannozzi et al., J. Phys.:Condens. Matter 29 465901 (2017);
         "P. Giannozzi et al., J. Chem. Phys. 152 154105 (2020);
          URL http://www.quantum-espresso.org", 
     in publications or presentations arising from this work. More details at
     http://www.quantum-espresso.org/quote

     Parallel version (MPI), running on    32 processors

     MPI processes distributed on     1 nodes
     170344 MiB available memory on the printing compute node when the environment starts

     Reading input from pw-wt-14.in
Warning: card &CELL ignored
Warning: card / ignored

     Current dimensions of program PWSCF are:
     Max number of different atomic species (ntypx) = 10
     Max number of k-points (npk) =  40000
     Max angular momentum in pseudopotentials (lmaxx) =  4
     file O.pbe-n-kjpaw_psl.0.1.UPF: wavefunction(s)  2P renormalized

     IMPORTANT: XC functional enforced from input :
     Exchange-correlation= PBE
                           (   1   4   3   4   0   0   0)
     Any further DFT definition will be discarded
     Please, verify this is what you really want


     gamma-point specific algorithms are used

     R & G space division:  proc/nbgrp/npool/nimage =      32
     Subspace diagonalization in iterative solution of the eigenvalue problem:
     a serial algorithm will be used


     Parallelization info
     --------------------
     sticks:   dense  smooth     PW     G-vecs:    dense   smooth      PW
     Min        1707    1707    426               301015   301015   37634
     Max        1710    1710    428               301034   301034   37648
     Sum       54693   54693  13673              9632757  9632757 1204469

     Using Slab Decomposition



     bravais-lattice index     =            0
     lattice parameter (alat)  =      75.7119  a.u.
     unit-cell volume          =  434002.3113 (a.u.)^3
     number of atoms/cell      =           66
     number of atomic types    =            2
     number of electrons       =       176.00
     number of Kohn-Sham states=           88
     kinetic-energy cutoff     =      30.0000  Ry
     charge density cutoff     =     120.0000  Ry
     scf convergence threshold =      1.0E-06
     mixing beta               =       0.5000
     number of iterations used =            8  plain     mixing
     Exchange-correlation= PBE
                           (   1   4   3   4   0   0   0)

     celldm(1)=  75.711877  celldm(2)=   0.000000  celldm(3)=   0.000000
     celldm(4)=   0.000000  celldm(5)=   0.000000  celldm(6)=   0.000000

     crystal axes: (cart. coord. in units of alat)
               a(1) = (   1.000000   0.000000   0.000000 )  
               a(2) = (   0.000000   1.000000   0.000000 )  
               a(3) = (   0.000000   0.000000   1.000000 )  

     reciprocal axes: (cart. coord. in units 2 pi/alat)
               b(1) = (  1.000000  0.000000  0.000000 )  
               b(2) = (  0.000000  1.000000  0.000000 )  
               b(3) = (  0.000000  0.000000  1.000000 )  


     PseudoPot. # 1 for H  read from file:
     /share/pfaendtnergroup/rverma7/QE_PP/H.pbe-rrkjus_psl.1.0.0.UPF
     MD5 check sum: f52b6d4d1c606e5624b1dc7b2218f220
     Pseudo is Ultrasoft, Zval =  1.0
     Generated using "atomic" code by A. Dal Corso  v.5.1
     Using radial grid of  929 points,  2 beta functions with: 
                l(1) =   0
                l(2) =   0
     Q(r) pseudized with 0 coefficients 


     PseudoPot. # 2 for O  read from file:
     /share/pfaendtnergroup/rverma7/QE_PP/O.pbe-n-kjpaw_psl.0.1.UPF
     MD5 check sum: 0234752ac141de4415c5fc33072bef88
     Pseudo is Projector augmented-wave + core cor, Zval =  6.0
     Generated using "atomic" code by A. Dal Corso  v.5.0.99 svn rev. 10869
     Shape of augmentation charge: BESSEL
     Using radial grid of 1095 points,  4 beta functions with: 
                l(1) =   0
                l(2) =   0
                l(3) =   1
                l(4) =   1
     Q(r) pseudized with 0 coefficients 


     atomic species   valence    mass     pseudopotential
        H              1.00     1.00800     H ( 1.00)
        O              6.00    15.99900     O ( 1.00)

     No symmetry found



   Cartesian axes

     site n.     atom                  positions (alat units)
         1           H   tau(   1) = (   0.3587420   0.2832148   0.4576813  )
         2           H   tau(   2) = (   0.3306627   0.2990890   0.4360165  )
         3           H   tau(   3) = (   0.4018720   0.3192312   0.3201797  )
         4           H   tau(   4) = (   0.3999251   0.2832897   0.3413453  )
         5           H   tau(   5) = (   0.3546986   0.2982404   0.3490578  )
         6           H   tau(   6) = (   0.3224011   0.3142643   0.3599900  )
         7           H   tau(   7) = (   0.3240484   0.1388494   0.3054287  )
         8           H   tau(   8) = (   0.3217522   0.1697242   0.3273930  )
         9           H   tau(   9) = (   0.2972170   0.2743791   0.4785973  )
        10           H   tau(  10) = (   0.2566579   0.2749282   0.4728816  )
        11           H   tau(  11) = (   0.1626108   0.2680145   0.4460002  )
        12           H   tau(  12) = (   0.1684762   0.2435542   0.4127044  )
        13           H   tau(  13) = (   0.3399476   0.2002746   0.4104330  )
        14           H   tau(  14) = (   0.3714214   0.2197679   0.4285536  )
        15           H   tau(  15) = (   0.2524897   0.2431798   0.4292525  )
        16           H   tau(  16) = (   0.2296269   0.2112817   0.4236615  )
        17           H   tau(  17) = (   0.2461001   0.2742294   0.3905404  )
        18           H   tau(  18) = (   0.2183951   0.2755772   0.4198428  )
        19           H   tau(  19) = (   0.2357170   0.2323474   0.3459129  )
        20           H   tau(  20) = (   0.2514664   0.1951828   0.3532510  )
        21           H   tau(  21) = (   0.3002122   0.1813553   0.3844503  )
        22           H   tau(  22) = (   0.3066018   0.2041433   0.3514289  )
        23           H   tau(  23) = (   0.2060152   0.2033446   0.3783851  )
        24           H   tau(  24) = (   0.1741171   0.1835517   0.3976289  )
        25           H   tau(  25) = (   0.3204043   0.2623487   0.3451641  )
        26           H   tau(  26) = (   0.3283914   0.2327967   0.3176588  )
        27           H   tau(  27) = (   0.3961562   0.2303756   0.3355048  )
        28           H   tau(  28) = (   0.3940846   0.2353675   0.3732435  )
        29           H   tau(  29) = (   0.2518657   0.2079870   0.4690628  )
        30           H   tau(  30) = (   0.2620242   0.2144515   0.5047548  )
        31           H   tau(  31) = (   0.3960814   0.3204043   0.3969549  )
        32           H   tau(  32) = (   0.3618121   0.3018345   0.3967802  )
        33           H   tau(  33) = (   0.2864845   0.3438662   0.3729190  )
        34           H   tau(  34) = (   0.2929989   0.3673281   0.3431174  )
        35           H   tau(  35) = (   0.3511045   0.1946587   0.2934731  )
        36           H   tau(  36) = (   0.3511045   0.2190191   0.2641208  )
        37           H   tau(  37) = (   0.2480220   0.2817671   0.3239735  )
        38           H   tau(  38) = (   0.2712342   0.2612505   0.3443404  )
        39           H   tau(  39) = (   0.2834145   0.1631848   0.4833895  )
        40           H   tau(  40) = (   0.3037564   0.1312617   0.5021340  )
        41           H   tau(  41) = (   0.2625733   0.3130912   0.4128791  )
        42           H   tau(  42) = (   0.2735804   0.3446400   0.4345688  )
        43           H   tau(  43) = (   0.2883564   0.1901161   0.4306502  )
        44           H   tau(  44) = (   0.3178335   0.1673281   0.4430301  )
        45           O   tau(  45) = (   0.3333084   0.2846874   0.4558093  )
        46           O   tau(  46) = (   0.3891426   0.3075752   0.3369525  )
        47           O   tau(  47) = (   0.3337327   0.2923000   0.3633845  )
        48           O   tau(  48) = (   0.3332585   0.1618620   0.3065019  )
        49           O   tau(  49) = (   0.2739299   0.2686884   0.4876576  )
        50           O   tau(  50) = (   0.1759391   0.2661924   0.4228379  )
        51           O   tau(  51) = (   0.3623861   0.2141520   0.4065144  )
        52           O   tau(  52) = (   0.2530139   0.2180956   0.4299264  )
        53           O   tau(  53) = (   0.2433296   0.2810683   0.4148758  )
        54           O   tau(  54) = (   0.2314739   0.2083115   0.3492824  )
        55           O   tau(  55) = (   0.2963434   0.1815051   0.3596156  )
        56           O   tau(  56) = (   0.1933608   0.1984026   0.4008736  )
        57           O   tau(  57) = (   0.3092974   0.2442032   0.3308374  )
        58           O   tau(  58) = (   0.4045676   0.2462498   0.3524023  )
        59           O   tau(  59) = (   0.2566829   0.1955572   0.4914015  )
        60           O   tau(  60) = (   0.3772869   0.3126919   0.4127543  )
        61           O   tau(  61) = (   0.3019843   0.3457132   0.3525521  )
        62           O   tau(  62) = (   0.3580432   0.2184949   0.2886559  )
        63           O   tau(  63) = (   0.2489954   0.2736054   0.3469362  )
        64           O   tau(  64) = (   0.3030825   0.1473855   0.4826157  )
        65           O   tau(  65) = (   0.2748783   0.3353800   0.4103831  )
        66           O   tau(  66) = (   0.3109946   0.1811806   0.4238612  )

     number of k points=     1
                       cart. coord. in units 2pi/alat
        k(    1) = (   0.0000000   0.0000000   0.0000000), wk =   2.0000000

     Dense  grid:  4816379 G-vectors     FFT dimensions: ( 270, 270, 270)

     Estimated max dynamical RAM per process >     612.29 MB

     Estimated total dynamical RAM >      19.13 GB

     Check: negative core charge=   -0.000006

     Initial potential from superposition of free atoms

     starting charge     175.9995, renormalised to     176.0000

     negative rho (up, down):  3.716E-01 0.000E+00
     Starting wfcs are  132 randomized atomic wfcs
     Checking if some PAW data can be deallocated... 

     total cpu time spent up to now is        8.7 secs

     Self-consistent Calculation

     iteration #  1     ecut=    30.00 Ry     beta= 0.50
     Davidson diagonalization with overlap
     ethr =  1.00E-02,  avg # of iterations =  2.0

     negative rho (up, down):  4.408E-01 0.000E+00

     total cpu time spent up to now is       20.1 secs

     total energy              =    -965.80133602 Ry
     estimated scf accuracy    <       6.88679210 Ry

     iteration #  2     ecut=    30.00 Ry     beta= 0.50
     Davidson diagonalization with overlap
     ethr =  3.91E-03,  avg # of iterations =  2.0

     negative rho (up, down):  4.623E-01 0.000E+00

     total cpu time spent up to now is       29.5 secs

     total energy              =    -967.70883024 Ry
     estimated scf accuracy    <       0.95937023 Ry

     iteration #  3     ecut=    30.00 Ry     beta= 0.50
     Davidson diagonalization with overlap
     ethr =  5.45E-04,  avg # of iterations =  2.0

     negative rho (up, down):  5.063E-01 0.000E+00

     total cpu time spent up to now is       37.9 secs

     total energy              =    -967.75879650 Ry
     estimated scf accuracy    <       0.12725758 Ry

     iteration #  4     ecut=    30.00 Ry     beta= 0.50
     Davidson diagonalization with overlap
     ethr =  7.23E-05,  avg # of iterations =  3.0

     negative rho (up, down):  5.083E-01 0.000E+00

     total cpu time spent up to now is       47.7 secs

     total energy              =    -967.78081071 Ry
     estimated scf accuracy    <       0.03208165 Ry

     iteration #  5     ecut=    30.00 Ry     beta= 0.50
     Davidson diagonalization with overlap
     ethr =  1.82E-05,  avg # of iterations =  2.0

     negative rho (up, down):  5.073E-01 0.000E+00

     total cpu time spent up to now is       55.5 secs

     total energy              =    -967.78087351 Ry
     estimated scf accuracy    <       0.00689458 Ry

     iteration #  6     ecut=    30.00 Ry     beta= 0.50
     Davidson diagonalization with overlap
     ethr =  3.92E-06,  avg # of iterations =  2.0

     negative rho (up, down):  5.067E-01 0.000E+00

     total cpu time spent up to now is       63.5 secs

     total energy              =    -967.78108581 Ry
     estimated scf accuracy    <       0.00145975 Ry

     iteration #  7     ecut=    30.00 Ry     beta= 0.50
     Davidson diagonalization with overlap
     ethr =  8.29E-07,  avg # of iterations =  2.0

     negative rho (up, down):  5.063E-01 0.000E+00

     total cpu time spent up to now is       72.2 secs

     total energy              =    -967.78116792 Ry
     estimated scf accuracy    <       0.00029483 Ry

     iteration #  8     ecut=    30.00 Ry     beta= 0.50
     Davidson diagonalization with overlap
     ethr =  1.68E-07,  avg # of iterations =  2.0

     negative rho (up, down):  5.063E-01 0.000E+00

     total cpu time spent up to now is       81.4 secs

     total energy              =    -967.78122979 Ry
     estimated scf accuracy    <       0.00002066 Ry

     iteration #  9     ecut=    30.00 Ry     beta= 0.50
     Davidson diagonalization with overlap
     ethr =  1.17E-08,  avg # of iterations =  3.0

     negative rho (up, down):  5.063E-01 0.000E+00

     total cpu time spent up to now is       90.5 secs

     total energy              =    -967.78123156 Ry
     estimated scf accuracy    <       0.00000760 Ry

     iteration # 10     ecut=    30.00 Ry     beta= 0.50
     Davidson diagonalization with overlap
     ethr =  4.32E-09,  avg # of iterations =  2.0

     negative rho (up, down):  5.064E-01 0.000E+00

     total cpu time spent up to now is       98.5 secs

     total energy              =    -967.78123168 Ry
     estimated scf accuracy    <       0.00000118 Ry

     iteration # 11     ecut=    30.00 Ry     beta= 0.50
     Davidson diagonalization with overlap
     ethr =  6.69E-10,  avg # of iterations =  3.0

     negative rho (up, down):  5.064E-01 0.000E+00

     total cpu time spent up to now is      107.7 secs

     End of self-consistent calculation

          k = 0.0000 0.0000 0.0000 (602235 PWs)   bands (ev):

   -26.4172 -26.1081 -25.8304 -25.6306 -25.5374 -25.4932 -25.4337 -25.2875
   -25.2337 -25.0685 -24.9899 -24.8600 -24.7998 -24.7337 -24.5965 -24.4971
   -24.4566 -24.2904 -24.1522 -24.0787 -23.9339 -23.8199 -14.0674 -13.7077
   -13.6445 -13.5893 -13.5813 -13.3933 -13.2001 -13.1939 -13.0354 -12.9901
   -12.8753 -12.7783 -12.6803 -12.6048 -12.5381 -12.3822 -12.3400 -12.2764
   -12.0635 -11.9435 -11.8276 -11.7296 -11.4021 -10.9546 -10.7941 -10.5700
   -10.5236 -10.2093 -10.0495  -9.9315  -9.7305  -9.6670  -9.5109  -9.4298
    -9.3030  -9.1600  -8.9395  -8.8978  -8.7773  -8.5910  -8.5030  -8.2206
    -8.1382  -8.0915  -8.0157  -7.8765  -7.8140  -7.6311  -7.5658  -7.5040
    -7.4270  -7.3383  -7.2969  -7.2745  -7.2361  -7.1864  -7.1586  -7.0516
    -6.9540  -6.9251  -6.7273  -6.6635  -6.4384  -6.3500  -6.2934  -6.2058

     highest occupied level (ev):    -6.2058

!    total energy              =    -967.78123198 Ry
     estimated scf accuracy    <       0.00000003 Ry

     The total energy is the sum of the following terms:
     one-electron contribution =   -6048.02666922 Ry
     hartree contribution      =    3059.10798533 Ry
     xc contribution           =    -194.15798467 Ry
     ewald contribution        =    2424.59589518 Ry
     one-center paw contrib.   =    -209.30045861 Ry

     convergence has been achieved in  11 iterations

     negative rho (up, down):  5.064E-01 0.000E+00

     Forces acting on atoms (cartesian axes, Ry/au):

     atom    1 type  1   force =    -0.06837298    0.00948797   -0.00795576
     atom    2 type  1   force =    -0.00056489   -0.00321796    0.01079317
     atom    3 type  1   force =     0.00947671    0.00715070   -0.01934161
     atom    4 type  1   force =    -0.02860113    0.05399105   -0.00979450
     atom    5 type  1   force =    -0.02730902   -0.01340356    0.01699952
     atom    6 type  1   force =    -0.01341353   -0.00400067   -0.00165998
     atom    7 type  1   force =     0.01904303    0.02173619   -0.01335911
     atom    8 type  1   force =    -0.00084265   -0.00896023    0.00473760
     atom    9 type  1   force =    -0.05105431   -0.00308846   -0.00402340
     atom   10 type  1   force =    -0.02525957    0.02661886   -0.04883358
     atom   11 type  1   force =     0.06376109   -0.01253761   -0.11142187
     atom   12 type  1   force =     0.03481523    0.05029193    0.03276467
     atom   13 type  1   force =     0.06640425    0.04843164    0.01267588
     atom   14 type  1   force =    -0.01381197   -0.00517730   -0.00377445
     atom   15 type  1   force =     0.01265289   -0.00906598   -0.00645972
     atom   16 type  1   force =     0.01742288   -0.00658061   -0.00085604
     atom   17 type  1   force =    -0.01168903    0.02180379    0.02588246
     atom   18 type  1   force =     0.03018027    0.02253753   -0.01440005
     atom   19 type  1   force =     0.01559929    0.00077948    0.00023147
     atom   20 type  1   force =     0.04897895   -0.00235850    0.00310462
     atom   21 type  1   force =     0.00937947   -0.01632781   -0.01987840
     atom   22 type  1   force =    -0.04300519   -0.02764613    0.02853924
     atom   23 type  1   force =    -0.01441227   -0.02278405    0.01084088
     atom   24 type  1   force =     0.01817818    0.00201220   -0.00802925
     atom   25 type  1   force =     0.00593569    0.00560081   -0.00138829
     atom   26 type  1   force =    -0.03828244    0.04057820    0.00069004
     atom   27 type  1   force =     0.00756905    0.01338269   -0.01070654
     atom   28 type  1   force =     0.01100048    0.03200001   -0.02692444
     atom   29 type  1   force =     0.01416883   -0.03518945    0.03322362
     atom   30 type  1   force =     0.02529060    0.04425980    0.04232589
     atom   31 type  1   force =    -0.05946552   -0.02178594    0.04826837
     atom   32 type  1   force =    -0.00775358   -0.00289138   -0.01032559
     atom   33 type  1   force =     0.03091387   -0.00228276   -0.00689482
     atom   34 type  1   force =     0.03375716   -0.04438122    0.00431170
     atom   35 type  1   force =     0.01101248    0.00184820    0.00066927
     atom   36 type  1   force =     0.02018441    0.01606925    0.06171034
     atom   37 type  1   force =    -0.01695739    0.02043978   -0.00308688
     atom   38 type  1   force =    -0.01036136    0.01058561    0.00244877
     atom   39 type  1   force =     0.00476057   -0.00895768    0.04041703
     atom   40 type  1   force =    -0.01625311    0.05258251   -0.04941050
     atom   41 type  1   force =     0.00270540    0.02836905   -0.00065763
     atom   42 type  1   force =     0.01096081   -0.02244919   -0.08943010
     atom   43 type  1   force =     0.02255902    0.01343734   -0.01042097
     atom   44 type  1   force =     0.00134330   -0.02066989    0.01128821
     atom   45 type  2   force =     0.05623262   -0.00477800    0.00678796
     atom   46 type  2   force =     0.03937598   -0.06066370    0.02361760
     atom   47 type  2   force =     0.04682206    0.00834098   -0.00729223
     atom   48 type  2   force =    -0.02388494   -0.04148930    0.01631186
     atom   49 type  2   force =     0.07992312   -0.01878888    0.05915651
     atom   50 type  2   force =    -0.07998964   -0.03897284    0.08006386
     atom   51 type  2   force =    -0.01502639   -0.01784568   -0.01558006
     atom   52 type  2   force =    -0.02968785   -0.01418404   -0.00181821
     atom   53 type  2   force =    -0.05686420   -0.04899178   -0.01907584
     atom   54 type  2   force =    -0.07335561   -0.00811308   -0.00535015
     atom   55 type  2   force =     0.01660053    0.05704322   -0.02735974
     atom   56 type  2   force =    -0.00773512    0.02330832   -0.00485904
     atom   57 type  2   force =     0.02441552   -0.05197901   -0.01059051
     atom   58 type  2   force =    -0.02242875   -0.05551268    0.03741331
     atom   59 type  2   force =    -0.03588649   -0.02009693   -0.06631291
     atom   60 type  2   force =     0.07441823    0.02719705   -0.03598308
     atom   61 type  2   force =    -0.07556377    0.07983886   -0.00449408
     atom   62 type  2   force =    -0.01958755   -0.01312587   -0.06246144
     atom   63 type  2   force =     0.04452957   -0.03278522   -0.01295890
     atom   64 type  2   force =     0.01625256   -0.03873159    0.01753396
     atom   65 type  2   force =    -0.01106769    0.02241905    0.10394425
     atom   66 type  2   force =    -0.04813617   -0.00232705    0.01641758
     The non-local contrib.  to forces
     atom    1 type  1   force =    -0.09334314    0.00592377   -0.00762297
     atom    2 type  1   force =     0.01320063   -0.06326690    0.08661404
     atom    3 type  1   force =    -0.05957208   -0.05799074    0.07942505
     atom    4 type  1   force =    -0.02669797    0.06207705   -0.01301465
     atom    5 type  1   force =    -0.06352086   -0.01795090    0.04372568
     atom    6 type  1   force =     0.04411611   -0.08629492    0.01271306
     atom    7 type  1   force =     0.03769560    0.09599720    0.00529587
     atom    8 type  1   force =     0.04408623   -0.03052156   -0.08099121
     atom    9 type  1   force =    -0.08466557   -0.01841349    0.02810922
     atom   10 type  1   force =     0.09359831   -0.03142131    0.07418833
     atom   11 type  1   force =     0.03788359   -0.00772359   -0.06735930
     atom   12 type  1   force =     0.02349264    0.07731554    0.03727329
     atom   13 type  1   force =     0.05909392    0.03615478   -0.00671363
     atom   14 type  1   force =    -0.04194370   -0.02629312   -0.09572982
     atom   15 type  1   force =    -0.00101810   -0.09607531    0.00183151
     atom   16 type  1   force =     0.09114393    0.02930467    0.02434824
     atom   17 type  1   force =    -0.01194079    0.02420493    0.09053197
     atom   18 type  1   force =     0.08142086    0.01712287   -0.01783627
     atom   19 type  1   force =    -0.01344767   -0.10223808    0.01537608
     atom   20 type  1   force =    -0.09099111    0.06473802   -0.01801586
     atom   21 type  1   force =    -0.01326406    0.00300934   -0.09501788
     atom   22 type  1   force =    -0.03108795   -0.07132774    0.02728158
     atom   23 type  1   force =    -0.03764569   -0.01571209    0.06315138
     atom   24 type  1   force =     0.08485823    0.06508847    0.01128174
     atom   25 type  1   force =    -0.03413841   -0.05833065   -0.04694875
     atom   26 type  1   force =    -0.06228622    0.03774430    0.04478645
     atom   27 type  1   force =     0.03552246    0.06848187    0.07441766
     atom   28 type  1   force =     0.03658428    0.03826866   -0.07460981
     atom   29 type  1   force =     0.01552351   -0.03846103    0.07052026
     atom   30 type  1   force =    -0.02709751   -0.09696764   -0.06895851
     atom   31 type  1   force =    -0.06668499   -0.02784402    0.05394197
     atom   32 type  1   force =     0.06622584    0.04591276    0.06506002
     atom   33 type  1   force =     0.05256558    0.00731666   -0.07077788
     atom   34 type  1   force =     0.03350526   -0.08223103    0.03653032
     atom   35 type  1   force =     0.02478185    0.08853157   -0.01875914
     atom   36 type  1   force =     0.02446531   -0.00322019    0.08964938
     atom   37 type  1   force =     0.00484382   -0.03746609    0.10404753
     atom   38 type  1   force =    -0.08032688    0.04461876    0.00881994
     atom   39 type  1   force =     0.07278465   -0.06123407   -0.00008218
     atom   40 type  1   force =    -0.00567783    0.06201677   -0.07190893
     atom   41 type  1   force =     0.04065253    0.07470366   -0.00717093
     atom   42 type  1   force =     0.00332068   -0.03237571   -0.08091139
     atom   43 type  1   force =     0.08713668   -0.03526407   -0.02437983
     atom   44 type  1   force =    -0.03077869    0.06104939   -0.08368008
     atom   45 type  2   force =     1.45598045    0.90887903   -1.17900505
     atom   46 type  2   force =     1.40751449   -0.44254370   -1.08642444
     atom   47 type  2   force =     0.39381004    1.42414980   -1.02790715
     atom   48 type  2   force =    -1.29606491   -1.02328466    1.11968745
     atom   49 type  2   force =     0.11546176    0.88467387   -1.88613255
     atom   50 type  2   force =    -1.22282906   -1.40770601    0.97392793
     atom   51 type  2   force =    -0.44053839   -0.32687513    1.79885688
     atom   52 type  2   force =    -1.50148141    0.99174690   -0.23628319
     atom   53 type  2   force =    -1.20033418   -0.75080456   -1.17000260
     atom   54 type  2   force =     1.53647088    0.72735832    0.33922248
     atom   55 type  2   force =     0.90502461    1.34410322    0.96518277
     atom   56 type  2   force =    -0.82316204   -0.74021429   -1.43007750
     atom   57 type  2   force =     1.58844788    0.10587986    0.15104301
     atom   58 type  2   force =    -1.37032628   -1.54682370    0.03481101
     atom   59 type  2   force =     0.25708425    1.96903743   -0.31614934
     atom   60 type  2   force =     0.29079539   -0.24111406   -2.15648837
     atom   61 type  2   force =    -1.49629096    1.30668938    0.49811321
     atom   62 type  2   force =    -1.03797403   -1.35910205   -1.31385071
     atom   63 type  2   force =     1.19999875   -0.30834117   -1.69444268
     atom   64 type  2   force =    -1.21771705   -0.18974060    1.43706537
     atom   65 type  2   force =    -0.76114658   -0.56762554    1.64857039
     atom   66 type  2   force =    -0.82943711   -0.25766991    1.45574352
     The ionic contribution  to forces
     atom    1 type  1   force =     4.56442014    0.26361283    2.48896197
     atom    2 type  1   force =     0.19029944    3.13988583   -0.87224326
     atom    3 type  1   force =     3.48619339    3.20259613   -3.85693408
     atom    4 type  1   force =     3.30871108   -0.78181626   -0.89961046
     atom    5 type  1   force =     2.41304965    1.70162364   -2.50162169
     atom    6 type  1   force =    -0.64833372    3.76959143   -1.12381122
     atom    7 type  1   force =    -0.94778280   -5.22888052   -1.54195649
     atom    8 type  1   force =    -0.60339063   -1.39165891    0.84313169
     atom    9 type  1   force =     2.57429785    1.31010117    1.70204776
     atom   10 type  1   force =    -3.54896383    2.10305310    0.26717930
     atom   11 type  1   force =    -3.53591794    0.85038653    3.44306891
     atom   12 type  1   force =    -3.61910370   -2.13384721   -0.93628283
     atom   13 type  1   force =     0.24567601   -2.04202275    0.68270078
     atom   14 type  1   force =     3.44071085    0.03733180    4.32780813
     atom   15 type  1   force =    -0.64286604    2.38678916    1.11312909
     atom   16 type  1   force =    -4.00771274   -1.95334282    0.35239020
     atom   17 type  1   force =    -1.07321657    0.29475650   -2.59127771
     atom   18 type  1   force =    -4.17151864    0.91390216    1.20760729
     atom   19 type  1   force =    -1.58765359    2.19387264   -2.33763961
     atom   20 type  1   force =     0.97171085   -3.45934060   -0.96192173
     atom   21 type  1   force =     0.34012848   -2.27527322    1.98154677
     atom   22 type  1   force =     1.14843953    0.72364952   -1.54723151
     atom   23 type  1   force =    -1.51074379   -0.86001766   -2.46743594
     atom   24 type  1   force =    -4.84521192   -3.48220481   -0.44837754
     atom   25 type  1   force =     1.19140894    1.59566401   -0.18297606
     atom   26 type  1   force =     2.04500768   -1.13410363   -3.15008996
     atom   27 type  1   force =     1.31043796   -2.84469679   -3.18553331
     atom   28 type  1   force =     1.48796960   -1.78863294    2.33211259
     atom   29 type  1   force =    -1.75063842    0.15688356    0.26119245
     atom   30 type  1   force =     0.22506458    2.20658160    4.77015645
     atom   31 type  1   force =     4.41829910    2.61691584   -0.95239749
     atom   32 type  1   force =    -0.08963449    0.05286996   -0.79670295
     atom   33 type  1   force =    -2.13772478    2.51082702    1.04548041
     atom   34 type  1   force =    -1.39839008    5.09396149   -2.42134616
     atom   35 type  1   force =     0.69851500   -3.24193179   -1.69411470
     atom   36 type  1   force =    -0.15456918   -0.01629273   -5.48780585
     atom   37 type  1   force =    -1.78529013    2.37273447   -5.41740261
     atom   38 type  1   force =     1.13486686   -0.53932527   -1.79246177
     atom   39 type  1   force =    -2.05395238   -0.39174138    1.75821100
     atom   40 type  1   force =     0.49853103   -3.71969034    3.87454582
     atom   41 type  1   force =    -1.84055099    0.38490807    0.88588186
     atom   42 type  1   force =    -0.64205657    3.60342880    4.00332142
     atom   43 type  1   force =    -2.24948131   -0.77520615    1.55508939
     atom   44 type  1   force =     2.17932667   -3.66866354    3.09587196
     atom   45 type  2   force =     4.58225507    3.40698184   13.76720000
     atom   46 type  2   force =     9.67332243   10.46091873   -7.04185793
     atom   47 type  2   force =     2.69166980    3.79613454   -1.32964265
     atom   48 type  2   force =     5.25512974  -11.49250004  -11.26679402
     atom   49 type  2   force =    -1.93736235    3.94965164   18.29611312
     atom   50 type  2   force =   -13.68046364    6.81507879    2.12555053
     atom   51 type  2   force =    13.08707439   -5.21283592    1.67974659
     atom   52 type  2   force =    -3.14350954   -6.59403174    5.30322280
     atom   53 type  2   force =    -6.85567971    8.92842889    5.49019904
     atom   54 type  2   force =   -13.16481908   -8.14642171  -11.32545589
     atom   55 type  2   force =    -2.61968670  -15.06644633   -6.19374112
     atom   56 type  2   force =   -13.47685036   -7.75161448    2.70432177
     atom   57 type  2   force =    -3.01504607   -0.39312133  -12.32124078
     atom   58 type  2   force =    17.57380273   -0.85843613   -2.76592264
     atom   59 type  2   force =    -6.28655017   -9.21583328   14.59825689
     atom   60 type  2   force =    12.00314969   10.25477220    9.91639252
     atom   61 type  2   force =     1.01347279   13.91344492   -8.91248244
     atom   62 type  2   force =     9.09608844    0.58177978  -12.19608669
     atom   63 type  2   force =   -11.79623955    7.61369963   -8.04493285
     atom   64 type  2   force =     5.23221126  -12.03423167    7.35423081
     atom   65 type  2   force =    -2.73740553   16.51857272    2.67818920
     atom   66 type  2   force =     5.47707589  -11.23122896    2.66047346
     The local contribution  to forces
     atom    1 type  1   force =    -4.53944289   -0.26006565   -2.48928597
     atom    2 type  1   force =    -0.20404474   -3.07985950    0.79644037
     atom    3 type  1   force =    -3.41714138   -3.13747935    3.75818489
     atom    4 type  1   force =    -3.31060361    0.77371494    0.90283675
     atom    5 type  1   force =    -2.37681988   -1.69709004    2.47489736
     atom    6 type  1   force =     0.59081927   -3.68731071    1.10943912
     atom    7 type  1   force =     0.92915109    5.15460491    1.52330707
     atom    8 type  1   force =     0.55848234    1.41319892   -0.75740102
     atom    9 type  1   force =    -2.54067565   -1.29479701   -1.73416714
     atom   10 type  1   force =     3.43013188   -2.04503629   -0.39018117
     atom   11 type  1   force =     3.56181550   -0.85521874   -3.48712690
     atom   12 type  1   force =     3.63044483    2.10680676    0.93178499
     atom   13 type  1   force =    -0.23834970    2.05427725   -0.66330245
     atom   14 type  1   force =    -3.41255939   -0.01623522   -4.23584067
     atom   15 type  1   force =     0.65655281   -2.29980090   -1.12141285
     atom   16 type  1   force =     3.93400395    1.91743591   -0.37758709
     atom   17 type  1   force =     1.07348253   -0.29717543    2.52663118
     atom   18 type  1   force =     4.12028773   -0.90850727   -1.20416473
     atom   19 type  1   force =     1.61671570   -2.09087116    2.32250358
     atom   20 type  1   force =    -0.83172554    3.39222390    0.98305060
     atom   21 type  1   force =    -0.31747304    2.25591259   -1.90640424
     atom   22 type  1   force =    -1.16034363   -0.67999068    1.54849794
     atom   23 type  1   force =     1.53398804    0.85292252    2.41514397
     atom   24 type  1   force =     4.77855625    3.41911203    0.42908015
     atom   25 type  1   force =    -1.15131950   -1.53174971    0.22853934
     atom   26 type  1   force =    -2.02098637    1.13692174    3.10599762
     atom   27 type  1   force =    -1.33837198    2.78958562    3.10041982
     atom   28 type  1   force =    -1.51353294    1.78234902   -2.28442422
     atom   29 type  1   force =     1.74930013   -0.15363153   -0.29847656
     atom   30 type  1   force =    -0.17266066   -2.06537540   -4.65886307
     atom   31 type  1   force =    -4.41106931   -2.61087849    0.94673748
     atom   32 type  1   force =     0.01567677   -0.10168824    0.72132906
     atom   33 type  1   force =     2.11609603   -2.52044646   -0.98159653
     atom   34 type  1   force =     1.39866715   -5.05614617    2.38913757
     atom   35 type  1   force =    -0.71226597    3.15523310    1.71354893
     atom   36 type  1   force =     0.15030825    0.03556389    5.45988489
     atom   37 type  1   force =     1.76350218   -2.31484788    5.31028782
     atom   38 type  1   force =    -1.06489189    0.50527875    1.78609936
     atom   39 type  1   force =     1.98594572    0.44399636   -1.71770173
     atom   40 type  1   force =    -0.50908750    3.71023392   -3.85203984
     atom   41 type  1   force =     1.80262068   -0.43125808   -0.87936345
     atom   42 type  1   force =     0.64971408   -3.59352141   -4.01183799
     atom   43 type  1   force =     2.18492012    0.82388455   -1.54112026
     atom   44 type  1   force =    -2.14718921    3.58691968   -3.00089118
     atom   45 type  2   force =    -5.96647419   -4.31181156  -12.59198500
     atom   46 type  2   force =   -11.02704514  -10.08285987    8.14064170
     atom   47 type  2   force =    -3.03528772   -5.19837735    2.34070051
     atom   48 type  2   force =    -3.99592722   12.46325187   10.17446189
     atom   49 type  2   force =     1.90309388   -4.84445482  -16.36943335
     atom   50 type  2   force =    14.80997444   -5.46013407   -3.00848923
     atom   51 type  2   force =   -12.66521870    5.51884921   -3.47664633
     atom   52 type  2   force =     4.60110342    5.59714955   -5.07137940
     atom   53 type  2   force =     7.98644514   -8.23373178   -4.35098569
     atom   54 type  2   force =    11.57054172    7.41766870   10.98317061
     atom   55 type  2   force =     1.74049564   13.79253173    5.21065917
     atom   56 type  2   force =    14.28279820    8.50730587   -1.29339158
     atom   57 type  2   force =     1.46607618    0.23536867   12.16047785
     atom   58 type  2   force =   -16.23922960    2.33420185    2.76909673
     atom   59 type  2   force =     5.99526415    7.24598194  -14.35129987
     atom   60 type  2   force =   -12.21498849   -9.98868468   -7.81734996
     atom   61 type  2   force =     0.39260476  -15.12672943    8.41328505
     atom   62 type  2   force =    -8.08800598    0.75133117   13.43364296
     atom   63 type  2   force =    10.65233551   -7.34089462    9.70971798
     atom   64 type  2   force =    -4.00989700   12.18268857   -8.75910322
     atom   65 type  2   force =     3.47962533  -15.93302515   -4.20506745
     atom   66 type  2   force =    -4.70365269   11.48401777   -4.08509599
     The core correction contribution to forces
     atom    1 type  1   force =     0.00000000    0.00000000    0.00000000
     atom    2 type  1   force =     0.00000000    0.00000000    0.00000000
     atom    3 type  1   force =     0.00000000    0.00000000    0.00000000
     atom    4 type  1   force =     0.00000000    0.00000000    0.00000000
     atom    5 type  1   force =     0.00000000    0.00000000    0.00000000
     atom    6 type  1   force =     0.00000000    0.00000000    0.00000000
     atom    7 type  1   force =     0.00000000    0.00000000    0.00000000
     atom    8 type  1   force =     0.00000000    0.00000000    0.00000000
     atom    9 type  1   force =     0.00000000    0.00000000    0.00000000
     atom   10 type  1   force =     0.00000000    0.00000000    0.00000000
     atom   11 type  1   force =     0.00000000    0.00000000    0.00000000
     atom   12 type  1   force =     0.00000000    0.00000000    0.00000000
     atom   13 type  1   force =     0.00000000    0.00000000    0.00000000
     atom   14 type  1   force =     0.00000000    0.00000000    0.00000000
     atom   15 type  1   force =     0.00000000    0.00000000    0.00000000
     atom   16 type  1   force =     0.00000000    0.00000000    0.00000000
     atom   17 type  1   force =     0.00000000    0.00000000    0.00000000
     atom   18 type  1   force =     0.00000000    0.00000000    0.00000000
     atom   19 type  1   force =     0.00000000    0.00000000    0.00000000
     atom   20 type  1   force =     0.00000000    0.00000000    0.00000000
     atom   21 type  1   force =     0.00000000    0.00000000    0.00000000
     atom   22 type  1   force =     0.00000000    0.00000000    0.00000000
     atom   23 type  1   force =     0.00000000    0.00000000    0.00000000
     atom   24 type  1   force =     0.00000000    0.00000000    0.00000000
     atom   25 type  1   force =     0.00000000    0.00000000    0.00000000
     atom   26 type  1   force =     0.00000000    0.00000000    0.00000000
     atom   27 type  1   force =     0.00000000    0.00000000    0.00000000
     atom   28 type  1   force =     0.00000000    0.00000000    0.00000000
     atom   29 type  1   force =     0.00000000    0.00000000    0.00000000
     atom   30 type  1   force =     0.00000000    0.00000000    0.00000000
     atom   31 type  1   force =     0.00000000    0.00000000    0.00000000
     atom   32 type  1   force =     0.00000000    0.00000000    0.00000000
     atom   33 type  1   force =     0.00000000    0.00000000    0.00000000
     atom   34 type  1   force =     0.00000000    0.00000000    0.00000000
     atom   35 type  1   force =     0.00000000    0.00000000    0.00000000
     atom   36 type  1   force =     0.00000000    0.00000000    0.00000000
     atom   37 type  1   force =     0.00000000    0.00000000    0.00000000
     atom   38 type  1   force =     0.00000000    0.00000000    0.00000000
     atom   39 type  1   force =     0.00000000    0.00000000    0.00000000
     atom   40 type  1   force =     0.00000000    0.00000000    0.00000000
     atom   41 type  1   force =     0.00000000    0.00000000    0.00000000
     atom   42 type  1   force =     0.00000000    0.00000000    0.00000000
     atom   43 type  1   force =     0.00000000    0.00000000    0.00000000
     atom   44 type  1   force =     0.00000000    0.00000000    0.00000000
     atom   45 type  2   force =    -0.01547513   -0.00884196    0.01061768
     atom   46 type  2   force =    -0.01444442    0.00386053    0.01122382
     atom   47 type  2   force =    -0.00336158   -0.01353867    0.00950267
     atom   48 type  2   force =     0.01303116    0.01104654   -0.01107122
     atom   49 type  2   force =    -0.00126028   -0.00866233    0.01863097
     atom   50 type  2   force =     0.01337744    0.01380626   -0.01089043
     atom   51 type  2   force =     0.00368962    0.00300186   -0.01754040
     atom   52 type  2   force =     0.01421635   -0.00905155    0.00261552
     atom   53 type  2   force =     0.01271648    0.00708615    0.01167485
     atom   54 type  2   force =    -0.01550450   -0.00673041   -0.00229494
     atom   55 type  2   force =    -0.00924750   -0.01318924   -0.00943231
     atom   56 type  2   force =     0.00947643    0.00777251    0.01434106
     atom   57 type  2   force =    -0.01504286   -0.00008668   -0.00088411
     atom   58 type  2   force =     0.01336592    0.01555884   -0.00057148
     atom   59 type  2   force =    -0.00166950   -0.01928167    0.00293137
     atom   60 type  2   force =    -0.00449060    0.00223716    0.02150992
     atom   61 type  2   force =     0.01472461   -0.01357800   -0.00347941
     atom   62 type  2   force =     0.01033278    0.01287899    0.01382279
     atom   63 type  2   force =    -0.01160880    0.00278991    0.01671987
     atom   64 type  2   force =     0.01171454    0.00249660   -0.01464408
     atom   65 type  2   force =     0.00788626    0.00452515   -0.01773951
     atom   66 type  2   force =     0.00786636    0.00249163   -0.01463902
     The Hubbard contrib.    to forces
     atom    1 type  1   force =     0.00000000    0.00000000    0.00000000
     atom    2 type  1   force =     0.00000000    0.00000000    0.00000000
     atom    3 type  1   force =     0.00000000    0.00000000    0.00000000
     atom    4 type  1   force =     0.00000000    0.00000000    0.00000000
     atom    5 type  1   force =     0.00000000    0.00000000    0.00000000
     atom    6 type  1   force =     0.00000000    0.00000000    0.00000000
     atom    7 type  1   force =     0.00000000    0.00000000    0.00000000
     atom    8 type  1   force =     0.00000000    0.00000000    0.00000000
     atom    9 type  1   force =     0.00000000    0.00000000    0.00000000
     atom   10 type  1   force =     0.00000000    0.00000000    0.00000000
     atom   11 type  1   force =     0.00000000    0.00000000    0.00000000
     atom   12 type  1   force =     0.00000000    0.00000000    0.00000000
     atom   13 type  1   force =     0.00000000    0.00000000    0.00000000
     atom   14 type  1   force =     0.00000000    0.00000000    0.00000000
     atom   15 type  1   force =     0.00000000    0.00000000    0.00000000
     atom   16 type  1   force =     0.00000000    0.00000000    0.00000000
     atom   17 type  1   force =     0.00000000    0.00000000    0.00000000
     atom   18 type  1   force =     0.00000000    0.00000000    0.00000000
     atom   19 type  1   force =     0.00000000    0.00000000    0.00000000
     atom   20 type  1   force =     0.00000000    0.00000000    0.00000000
     atom   21 type  1   force =     0.00000000    0.00000000    0.00000000
     atom   22 type  1   force =     0.00000000    0.00000000    0.00000000
     atom   23 type  1   force =     0.00000000    0.00000000    0.00000000
     atom   24 type  1   force =     0.00000000    0.00000000    0.00000000
     atom   25 type  1   force =     0.00000000    0.00000000    0.00000000
     atom   26 type  1   force =     0.00000000    0.00000000    0.00000000
     atom   27 type  1   force =     0.00000000    0.00000000    0.00000000
     atom   28 type  1   force =     0.00000000    0.00000000    0.00000000
     atom   29 type  1   force =     0.00000000    0.00000000    0.00000000
     atom   30 type  1   force =     0.00000000    0.00000000    0.00000000
     atom   31 type  1   force =     0.00000000    0.00000000    0.00000000
     atom   32 type  1   force =     0.00000000    0.00000000    0.00000000
     atom   33 type  1   force =     0.00000000    0.00000000    0.00000000
     atom   34 type  1   force =     0.00000000    0.00000000    0.00000000
     atom   35 type  1   force =     0.00000000    0.00000000    0.00000000
     atom   36 type  1   force =     0.00000000    0.00000000    0.00000000
     atom   37 type  1   force =     0.00000000    0.00000000    0.00000000
     atom   38 type  1   force =     0.00000000    0.00000000    0.00000000
     atom   39 type  1   force =     0.00000000    0.00000000    0.00000000
     atom   40 type  1   force =     0.00000000    0.00000000    0.00000000
     atom   41 type  1   force =     0.00000000    0.00000000    0.00000000
     atom   42 type  1   force =     0.00000000    0.00000000    0.00000000
     atom   43 type  1   force =     0.00000000    0.00000000    0.00000000
     atom   44 type  1   force =     0.00000000    0.00000000    0.00000000
     atom   45 type  2   force =     0.00000000    0.00000000    0.00000000
     atom   46 type  2   force =     0.00000000    0.00000000    0.00000000
     atom   47 type  2   force =     0.00000000    0.00000000    0.00000000
     atom   48 type  2   force =     0.00000000    0.00000000    0.00000000
     atom   49 type  2   force =     0.00000000    0.00000000    0.00000000
     atom   50 type  2   force =     0.00000000    0.00000000    0.00000000
     atom   51 type  2   force =     0.00000000    0.00000000    0.00000000
     atom   52 type  2   force =     0.00000000    0.00000000    0.00000000
     atom   53 type  2   force =     0.00000000    0.00000000    0.00000000
     atom   54 type  2   force =     0.00000000    0.00000000    0.00000000
     atom   55 type  2   force =     0.00000000    0.00000000    0.00000000
     atom   56 type  2   force =     0.00000000    0.00000000    0.00000000
     atom   57 type  2   force =     0.00000000    0.00000000    0.00000000
     atom   58 type  2   force =     0.00000000    0.00000000    0.00000000
     atom   59 type  2   force =     0.00000000    0.00000000    0.00000000
     atom   60 type  2   force =     0.00000000    0.00000000    0.00000000
     atom   61 type  2   force =     0.00000000    0.00000000    0.00000000
     atom   62 type  2   force =     0.00000000    0.00000000    0.00000000
     atom   63 type  2   force =     0.00000000    0.00000000    0.00000000
     atom   64 type  2   force =     0.00000000    0.00000000    0.00000000
     atom   65 type  2   force =     0.00000000    0.00000000    0.00000000
     atom   66 type  2   force =     0.00000000    0.00000000    0.00000000
     The SCF correction term to forces
     atom    1 type  1   force =     0.00000842   -0.00000411   -0.00000004
     atom    2 type  1   force =    -0.00000470    0.00000150   -0.00000925
     atom    3 type  1   force =     0.00001228    0.00000354   -0.00000874
     atom    4 type  1   force =     0.00000488   -0.00000581    0.00000261
     atom    5 type  1   force =    -0.00000241   -0.00000738    0.00000690
     atom    6 type  1   force =     0.00000031   -0.00000758    0.00000780
     atom    7 type  1   force =    -0.00000535   -0.00000652    0.00000318
     atom    8 type  1   force =    -0.00000507    0.00000020    0.00000688
     atom    9 type  1   force =     0.00000457   -0.00000024   -0.00000451
     atom   10 type  1   force =    -0.00001043    0.00000224   -0.00001131
     atom   11 type  1   force =    -0.00000454   -0.00000293    0.00000415
     atom   12 type  1   force =    -0.00000303   -0.00000428   -0.00000205
     atom   13 type  1   force =    -0.00000047    0.00000124   -0.00000007
     atom   14 type  1   force =    -0.00000422   -0.00000189   -0.00000334
     atom   15 type  1   force =    -0.00000027   -0.00000005    0.00000126
     atom   16 type  1   force =     0.00000325    0.00000050    0.00000135
     atom   17 type  1   force =     0.00000131   -0.00000333    0.00000575
     atom   18 type  1   force =     0.00000582   -0.00000135    0.00000240
     atom   19 type  1   force =     0.00000037   -0.00000504    0.00000016
     atom   20 type  1   force =     0.00000026   -0.00000094    0.00000036
     atom   21 type  1   force =     0.00000360    0.00000235    0.00000569
     atom   22 type  1   force =     0.00000236    0.00000165   -0.00000003
     atom   23 type  1   force =     0.00000468    0.00000205   -0.00000979
     atom   24 type  1   force =    -0.00000887   -0.00000461   -0.00000487
     atom   25 type  1   force =     0.00000017   -0.00000397    0.00000591
     atom   26 type  1   force =    -0.00000203   -0.00000534    0.00000467
     atom   27 type  1   force =    -0.00000389   -0.00000913   -0.00000197
     atom   28 type  1   force =    -0.00000494   -0.00000586    0.00000574
     atom   29 type  1   force =    -0.00000089   -0.00000158   -0.00000380
     atom   30 type  1   force =    -0.00000029    0.00000012   -0.00000024
     atom   31 type  1   force =     0.00000520   -0.00000040   -0.00000484
     atom   32 type  1   force =    -0.00000619   -0.00000698   -0.00000298
     atom   33 type  1   force =    -0.00000744   -0.00000111    0.00000791
     atom   34 type  1   force =    -0.00000966    0.00001336   -0.00000129
     atom   35 type  1   force =    -0.00000289   -0.00000581    0.00000292
     atom   36 type  1   force =    -0.00000445   -0.00000285   -0.00000934
     atom   37 type  1   force =     0.00000224   -0.00000185   -0.00001087
     atom   38 type  1   force =     0.00000605   -0.00000774   -0.00000003
     atom   39 type  1   force =    -0.00000191    0.00000030   -0.00000132
     atom   40 type  1   force =    -0.00000329    0.00000105    0.00000119
     atom   41 type  1   force =    -0.00000132   -0.00000572    0.00000363
     atom   42 type  1   force =    -0.00000187   -0.00000200    0.00000659
     atom   43 type  1   force =    -0.00000096    0.00000189   -0.00000153
     atom   44 type  1   force =     0.00000004    0.00000346   -0.00000374
     atom   45 type  2   force =    -0.00003807   -0.00000647   -0.00003093
     atom   46 type  2   force =     0.00004413   -0.00006051    0.00004318
     atom   47 type  2   force =     0.00000702   -0.00004845    0.00006312
     atom   48 type  2   force =    -0.00003821   -0.00002413    0.00003650
     atom   49 type  2   force =     0.00000561   -0.00001835   -0.00001294
     atom   50 type  2   force =    -0.00003332   -0.00003894   -0.00002620
     atom   51 type  2   force =    -0.00001779   -0.00000682    0.00001194
     atom   52 type  2   force =    -0.00000116   -0.00001833    0.00001481
     atom   53 type  2   force =     0.00000359    0.00000840    0.00004730
     atom   54 type  2   force =    -0.00002913   -0.00000910    0.00001633
     atom   55 type  2   force =     0.00002998    0.00002272   -0.00001951
     atom   56 type  2   force =     0.00001816    0.00003759   -0.00004406
     atom   57 type  2   force =    -0.00000411   -0.00004065    0.00002226
     atom   58 type  2   force =    -0.00002601   -0.00003466    0.00000843
     atom   59 type  2   force =     0.00000029   -0.00002247   -0.00004322
     atom   60 type  2   force =    -0.00003225   -0.00003469   -0.00003845
     atom   61 type  2   force =    -0.00005946   -0.00000912    0.00007825
     atom   62 type  2   force =    -0.00001325   -0.00003488    0.00001895
     atom   63 type  2   force =     0.00005917   -0.00006008   -0.00001249
     atom   64 type  2   force =    -0.00004368    0.00003439   -0.00000617
     atom   65 type  2   force =    -0.00001166   -0.00004926    0.00000035
     atom   66 type  2   force =     0.00002690    0.00004130   -0.00005565

     Total force =     0.468596     Total SCF correction =     0.000277


     Computing stress (Cartesian axis) and pressure


     negative rho (up, down):  5.064E-01 0.000E+00
          total   stress  (Ry/bohr**3)                   (kbar)     P=       -2.66
  -0.00001855   0.00000003   0.00000061           -2.73        0.00        0.09
   0.00000003  -0.00001758   0.00000017            0.00       -2.59        0.03
   0.00000061   0.00000017  -0.00001815            0.09        0.03       -2.67


     init_run     :      8.15s CPU      8.57s WALL (       1 calls)
     electrons    :     92.44s CPU     99.03s WALL (       1 calls)
     forces       :      5.65s CPU      5.97s WALL (       1 calls)
     stress       :     16.51s CPU     17.02s WALL (       1 calls)

     Called by init_run:
     wfcinit      :      3.09s CPU      3.28s WALL (       1 calls)
     potinit      :      1.31s CPU      1.39s WALL (       1 calls)
     hinit0       :      1.02s CPU      1.06s WALL (       1 calls)

     Called by electrons:
     c_bands      :     61.79s CPU     65.11s WALL (      11 calls)
     sum_band     :     17.69s CPU     19.14s WALL (      11 calls)
     v_of_rho     :      7.51s CPU      8.20s WALL (      12 calls)
     newd         :      3.72s CPU      4.85s WALL (      12 calls)
     PAW_pot      :      1.09s CPU      1.11s WALL (      12 calls)
     mix_rho      :      1.43s CPU      1.52s WALL (      11 calls)

     Called by c_bands:
     init_us_2    :      0.90s CPU      0.93s WALL (      23 calls)
     init_us_2:cp :      0.90s CPU      0.93s WALL (      23 calls)
     regterg      :     60.71s CPU     64.02s WALL (      11 calls)

     Called by *egterg:
     rdiaghg      :      0.23s CPU      0.24s WALL (      36 calls)
     h_psi        :     54.44s CPU     57.21s WALL (      37 calls)
     s_psi        :      1.53s CPU      1.54s WALL (      37 calls)
     g_psi        :      0.18s CPU      0.18s WALL (      25 calls)

     Called by h_psi:
     h_psi:calbec :      1.37s CPU      1.38s WALL (      37 calls)
     vloc_psi     :     51.05s CPU     53.78s WALL (      37 calls)
     add_vuspsi   :      1.53s CPU      1.53s WALL (      37 calls)

     General routines
     calbec       :      2.01s CPU      2.03s WALL (      53 calls)
     fft          :      4.40s CPU      5.04s WALL (     128 calls)
     ffts         :      0.30s CPU      0.35s WALL (      11 calls)
     fftw         :     43.80s CPU     46.85s WALL (    3168 calls)

     Parallel routines

     PWSCF        :   2m 2.87s CPU   2m10.83s WALL


   This run was terminated on:   2:50:48  27Mar2024            

=------------------------------------------------------------------------------=
   JOB DONE.
=------------------------------------------------------------------------------=
