
     Program PWSCF v.7.2 starts on 28Mar2024 at  1:40:21 

     This program is part of the open-source Quantum ESPRESSO suite
     for quantum simulation of materials; please cite
         "P. Giannozzi et al., J. Phys.:Condens. Matter 21 395502 (2009);
         "P. Giannozzi et al., J. Phys.:Condens. Matter 29 465901 (2017);
         "P. Giannozzi et al., J. Chem. Phys. 152 154105 (2020);
          URL http://www.quantum-espresso.org", 
     in publications or presentations arising from this work. More details at
     http://www.quantum-espresso.org/quote

     Parallel version (MPI), running on    32 processors

     MPI processes distributed on     1 nodes
     175020 MiB available memory on the printing compute node when the environment starts

     Reading input from pw-wt-498.in
Warning: card &CELL ignored
Warning: card / ignored

     Current dimensions of program PWSCF are:
     Max number of different atomic species (ntypx) = 10
     Max number of k-points (npk) =  40000
     Max angular momentum in pseudopotentials (lmaxx) =  4
     file O.pbe-n-kjpaw_psl.0.1.UPF: wavefunction(s)  2P renormalized

     IMPORTANT: XC functional enforced from input :
     Exchange-correlation= PBE
                           (   1   4   3   4   0   0   0)
     Any further DFT definition will be discarded
     Please, verify this is what you really want


     gamma-point specific algorithms are used

     R & G space division:  proc/nbgrp/npool/nimage =      32
     Subspace diagonalization in iterative solution of the eigenvalue problem:
     a serial algorithm will be used


     Parallelization info
     --------------------
     sticks:   dense  smooth     PW     G-vecs:    dense   smooth      PW
     Min        1707    1707    426               301015   301015   37634
     Max        1710    1710    428               301034   301034   37648
     Sum       54693   54693  13673              9632757  9632757 1204469

     Using Slab Decomposition



     bravais-lattice index     =            0
     lattice parameter (alat)  =      75.7119  a.u.
     unit-cell volume          =  434002.3113 (a.u.)^3
     number of atoms/cell      =           66
     number of atomic types    =            2
     number of electrons       =       176.00
     number of Kohn-Sham states=           88
     kinetic-energy cutoff     =      30.0000  Ry
     charge density cutoff     =     120.0000  Ry
     scf convergence threshold =      1.0E-06
     mixing beta               =       0.5000
     number of iterations used =            8  plain     mixing
     Exchange-correlation= PBE
                           (   1   4   3   4   0   0   0)

     celldm(1)=  75.711877  celldm(2)=   0.000000  celldm(3)=   0.000000
     celldm(4)=   0.000000  celldm(5)=   0.000000  celldm(6)=   0.000000

     crystal axes: (cart. coord. in units of alat)
               a(1) = (   1.000000   0.000000   0.000000 )  
               a(2) = (   0.000000   1.000000   0.000000 )  
               a(3) = (   0.000000   0.000000   1.000000 )  

     reciprocal axes: (cart. coord. in units 2 pi/alat)
               b(1) = (  1.000000  0.000000  0.000000 )  
               b(2) = (  0.000000  1.000000  0.000000 )  
               b(3) = (  0.000000  0.000000  1.000000 )  


     PseudoPot. # 1 for H  read from file:
     /share/pfaendtnergroup/rverma7/QE_PP/H.pbe-rrkjus_psl.1.0.0.UPF
     MD5 check sum: f52b6d4d1c606e5624b1dc7b2218f220
     Pseudo is Ultrasoft, Zval =  1.0
     Generated using "atomic" code by A. Dal Corso  v.5.1
     Using radial grid of  929 points,  2 beta functions with: 
                l(1) =   0
                l(2) =   0
     Q(r) pseudized with 0 coefficients 


     PseudoPot. # 2 for O  read from file:
     /share/pfaendtnergroup/rverma7/QE_PP/O.pbe-n-kjpaw_psl.0.1.UPF
     MD5 check sum: 0234752ac141de4415c5fc33072bef88
     Pseudo is Projector augmented-wave + core cor, Zval =  6.0
     Generated using "atomic" code by A. Dal Corso  v.5.0.99 svn rev. 10869
     Shape of augmentation charge: BESSEL
     Using radial grid of 1095 points,  4 beta functions with: 
                l(1) =   0
                l(2) =   0
                l(3) =   1
                l(4) =   1
     Q(r) pseudized with 0 coefficients 


     atomic species   valence    mass     pseudopotential
        H              1.00     1.00800     H ( 1.00)
        O              6.00    15.99900     O ( 1.00)

     No symmetry found



   Cartesian axes

     site n.     atom                  positions (alat units)
         1           H   tau(   1) = (   0.3263696   0.3131162   0.3182079  )
         2           H   tau(   2) = (   0.3510296   0.3340572   0.2989143  )
         3           H   tau(   3) = (   0.2390865   0.3096967   0.4373393  )
         4           H   tau(   4) = (   0.2141270   0.3422439   0.4329964  )
         5           H   tau(   5) = (   0.4343192   0.1865219   0.4096843  )
         6           H   tau(   6) = (   0.4098839   0.2111569   0.3922626  )
         7           H   tau(   7) = (   0.2915762   0.2857357   0.3546737  )
         8           H   tau(   8) = (   0.2601772   0.2969674   0.3379009  )
         9           H   tau(   9) = (   0.2361163   0.2446774   0.2860352  )
        10           H   tau(  10) = (   0.2656184   0.2572570   0.3123424  )
        11           H   tau(  11) = (   0.2270810   0.1975041   0.4475727  )
        12           H   tau(  12) = (   0.2589542   0.2116061   0.4216149  )
        13           H   tau(  13) = (   0.3847747   0.2956446   0.3251466  )
        14           H   tau(  14) = (   0.4222389   0.2865094   0.3356296  )
        15           H   tau(  15) = (   0.3893673   0.2576313   0.4164982  )
        16           H   tau(  16) = (   0.3609385   0.2387121   0.4396106  )
        17           H   tau(  17) = (   0.2696119   0.2180706   0.5256957  )
        18           H   tau(  18) = (   0.2898789   0.2104330   0.4898041  )
        19           H   tau(  19) = (   0.2186447   0.3101710   0.3775365  )
        20           H   tau(  20) = (   0.2098091   0.2760514   0.3620367  )
        21           H   tau(  21) = (   0.4039186   0.2026457   0.4539124  )
        22           H   tau(  22) = (   0.4131536   0.1844253   0.4865344  )
        23           H   tau(  23) = (   0.1724198   0.2433046   0.3910396  )
        24           H   tau(  24) = (   0.2110071   0.2308000   0.3961812  )
        25           H   tau(  25) = (   0.2074379   0.1961562   0.3594659  )
        26           H   tau(  26) = (   0.2348434   0.1978036   0.3297641  )
        27           H   tau(  27) = (   0.2915013   0.2956945   0.4633221  )
        28           H   tau(  28) = (   0.2613253   0.2700612   0.4764258  )
        29           H   tau(  29) = (   0.2843879   0.2787221   0.4106327  )
        30           H   tau(  30) = (   0.3252964   0.2699364   0.4084862  )
        31           H   tau(  31) = (   0.3090478   0.2039935   0.3989767  )
        32           H   tau(  32) = (   0.2894796   0.1704480   0.4004493  )
        33           H   tau(  33) = (   0.3527019   0.2032946   0.4772495  )
        34           H   tau(  34) = (   0.3180831   0.1994010   0.4524398  )
        35           H   tau(  35) = (   0.1805316   0.2820167   0.2915512  )
        36           H   tau(  36) = (   0.2135031   0.2897541   0.3135655  )
        37           H   tau(  37) = (   0.3149632   0.2303756   0.3601148  )
        38           H   tau(  38) = (   0.3167353   0.2021715   0.3316361  )
        39           H   tau(  39) = (   0.3946337   0.2381630   0.3487083  )
        40           H   tau(  40) = (   0.3680769   0.2067141   0.3543741  )
        41           H   tau(  41) = (   0.3427430   0.3105703   0.4862349  )
        42           H   tau(  42) = (   0.3467615   0.2906028   0.4517908  )
        43           H   tau(  43) = (   0.2849869   0.1384750   0.3469612  )
        44           H   tau(  44) = (   0.2501435   0.1541745   0.3582928  )
        45           O   tau(  45) = (   0.3510545   0.3198053   0.3191564  )
        46           O   tau(  46) = (   0.2258081   0.3249969   0.4188194  )
        47           O   tau(  47) = (   0.4218146   0.2067890   0.4150505  )
        48           O   tau(  48) = (   0.2830151   0.2901535   0.3297392  )
        49           O   tau(  49) = (   0.2535879   0.2370398   0.3036566  )
        50           O   tau(  50) = (   0.2333458   0.2122800   0.4287533  )
        51           O   tau(  51) = (   0.4015974   0.2755023   0.3269188  )
        52           O   tau(  52) = (   0.3685012   0.2614252   0.4312991  )
        53           O   tau(  53) = (   0.2692874   0.2214901   0.5006115  )
        54           O   tau(  54) = (   0.2208162   0.2981904   0.3544490  )
        55           O   tau(  55) = (   0.3952327   0.1969300   0.4772245  )
        56           O   tau(  56) = (   0.1942593   0.2419069   0.3800824  )
        57           O   tau(  57) = (   0.2218645   0.1819044   0.3449644  )
        58           O   tau(  58) = (   0.2659928   0.2910520   0.4637464  )
        59           O   tau(  59) = (   0.3027580   0.2688881   0.3964058  )
        60           O   tau(  60) = (   0.2992138   0.1879196   0.4160739  )
        61           O   tau(  61) = (   0.3276675   0.2069138   0.4767752  )
        62           O   tau(  62) = (   0.2061650   0.2831149   0.2891302  )
        63           O   tau(  63) = (   0.3249470   0.2082366   0.3538999  )
        64           O   tau(  64) = (   0.3911144   0.2166979   0.3606390  )
        65           O   tau(  65) = (   0.3292150   0.3031574   0.4659179  )
        66           O   tau(  66) = (   0.2727318   0.1442406   0.3672782  )

     number of k points=     1
                       cart. coord. in units 2pi/alat
        k(    1) = (   0.0000000   0.0000000   0.0000000), wk =   2.0000000

     Dense  grid:  4816379 G-vectors     FFT dimensions: ( 270, 270, 270)

     Estimated max dynamical RAM per process >     612.29 MB

     Estimated total dynamical RAM >      19.13 GB

     Check: negative core charge=   -0.000006

     Initial potential from superposition of free atoms

     starting charge     175.9995, renormalised to     176.0000

     negative rho (up, down):  3.707E-01 0.000E+00
     Starting wfcs are  132 randomized atomic wfcs
     Checking if some PAW data can be deallocated... 

     total cpu time spent up to now is        8.0 secs

     Self-consistent Calculation

     iteration #  1     ecut=    30.00 Ry     beta= 0.50
     Davidson diagonalization with overlap
     ethr =  1.00E-02,  avg # of iterations =  2.0

     negative rho (up, down):  4.376E-01 0.000E+00

     total cpu time spent up to now is       16.0 secs

     total energy              =    -965.76692884 Ry
     estimated scf accuracy    <       6.93185115 Ry

     iteration #  2     ecut=    30.00 Ry     beta= 0.50
     Davidson diagonalization with overlap
     ethr =  3.94E-03,  avg # of iterations =  2.0

     negative rho (up, down):  4.577E-01 0.000E+00

     total cpu time spent up to now is       24.3 secs

     total energy              =    -967.71965487 Ry
     estimated scf accuracy    <       1.02947556 Ry

     iteration #  3     ecut=    30.00 Ry     beta= 0.50
     Davidson diagonalization with overlap
     ethr =  5.85E-04,  avg # of iterations =  2.0

     negative rho (up, down):  5.030E-01 0.000E+00

     total cpu time spent up to now is       31.6 secs

     total energy              =    -967.77247208 Ry
     estimated scf accuracy    <       0.13277519 Ry

     iteration #  4     ecut=    30.00 Ry     beta= 0.50
     Davidson diagonalization with overlap
     ethr =  7.54E-05,  avg # of iterations =  3.0

     negative rho (up, down):  5.029E-01 0.000E+00

     total cpu time spent up to now is       40.2 secs

     total energy              =    -967.79784896 Ry
     estimated scf accuracy    <       0.04234334 Ry

     iteration #  5     ecut=    30.00 Ry     beta= 0.50
     Davidson diagonalization with overlap
     ethr =  2.41E-05,  avg # of iterations =  2.0

     negative rho (up, down):  5.019E-01 0.000E+00

     total cpu time spent up to now is       47.0 secs

     total energy              =    -967.79831121 Ry
     estimated scf accuracy    <       0.00840049 Ry

     iteration #  6     ecut=    30.00 Ry     beta= 0.50
     Davidson diagonalization with overlap
     ethr =  4.77E-06,  avg # of iterations =  2.0

     negative rho (up, down):  5.010E-01 0.000E+00

     total cpu time spent up to now is       54.0 secs

     total energy              =    -967.79835498 Ry
     estimated scf accuracy    <       0.00200387 Ry

     iteration #  7     ecut=    30.00 Ry     beta= 0.50
     Davidson diagonalization with overlap
     ethr =  1.14E-06,  avg # of iterations =  2.0

     negative rho (up, down):  5.006E-01 0.000E+00

     total cpu time spent up to now is       61.8 secs

     total energy              =    -967.79859881 Ry
     estimated scf accuracy    <       0.00018471 Ry

     iteration #  8     ecut=    30.00 Ry     beta= 0.50
     Davidson diagonalization with overlap
     ethr =  1.05E-07,  avg # of iterations =  2.0

     negative rho (up, down):  5.006E-01 0.000E+00

     total cpu time spent up to now is       70.0 secs

     total energy              =    -967.79866027 Ry
     estimated scf accuracy    <       0.00002423 Ry

     iteration #  9     ecut=    30.00 Ry     beta= 0.50
     Davidson diagonalization with overlap
     ethr =  1.38E-08,  avg # of iterations =  2.0

     negative rho (up, down):  5.006E-01 0.000E+00

     total cpu time spent up to now is       78.9 secs

     total energy              =    -967.79865641 Ry
     estimated scf accuracy    <       0.00001456 Ry

     iteration # 10     ecut=    30.00 Ry     beta= 0.50
     Davidson diagonalization with overlap
     ethr =  8.27E-09,  avg # of iterations =  2.0

     negative rho (up, down):  5.007E-01 0.000E+00

     total cpu time spent up to now is       87.4 secs

     total energy              =    -967.79865772 Ry
     estimated scf accuracy    <       0.00000105 Ry

     iteration # 11     ecut=    30.00 Ry     beta= 0.50
     Davidson diagonalization with overlap
     ethr =  5.97E-10,  avg # of iterations =  3.0

     negative rho (up, down):  5.007E-01 0.000E+00

     total cpu time spent up to now is       95.7 secs

     End of self-consistent calculation

          k = 0.0000 0.0000 0.0000 (602235 PWs)   bands (ev):

   -26.3724 -26.2035 -25.7276 -25.6577 -25.6323 -25.4715 -25.3795 -25.3708
   -25.2317 -25.0826 -24.9749 -24.8554 -24.6698 -24.6218 -24.6201 -24.4828
   -24.4539 -24.3166 -24.1774 -24.0377 -23.7804 -23.5832 -14.3312 -14.0805
   -13.6821 -13.6140 -13.2953 -13.2268 -13.1346 -12.9975 -12.9790 -12.9503
   -12.9353 -12.8615 -12.7962 -12.6642 -12.5747 -12.5605 -12.3139 -12.2063
   -12.1406 -11.9972 -11.8251 -11.4937 -11.0153 -10.8758 -10.8552 -10.6508
   -10.4537 -10.3738 -10.2819 -10.0157  -9.8585  -9.7233  -9.5119  -9.4081
    -9.2997  -9.2621  -9.0647  -8.8936  -8.6984  -8.6887  -8.5855  -8.5199
    -8.2636  -8.0666  -8.0449  -7.9451  -7.7954  -7.7736  -7.6957  -7.5506
    -7.5189  -7.4889  -7.4147  -7.2428  -7.1911  -7.1799  -7.1479  -7.1028
    -7.0640  -6.9430  -6.8816  -6.8485  -6.7127  -6.6296  -6.3240  -6.0170

     highest occupied level (ev):    -6.0170

!    total energy              =    -967.79865801 Ry
     estimated scf accuracy    <       0.00000003 Ry

     The total energy is the sum of the following terms:
     one-electron contribution =   -5822.64639082 Ry
     hartree contribution      =    2945.84558468 Ry
     xc contribution           =    -193.51564937 Ry
     ewald contribution        =    2311.83266881 Ry
     one-center paw contrib.   =    -209.31487130 Ry

     convergence has been achieved in  11 iterations

     negative rho (up, down):  5.007E-01 0.000E+00

     Forces acting on atoms (cartesian axes, Ry/au):

     atom    1 type  1   force =     0.03725806   -0.00745357    0.02267669
     atom    2 type  1   force =     0.01947336   -0.00591303    0.01497249
     atom    3 type  1   force =    -0.03727844    0.05284925   -0.05691147
     atom    4 type  1   force =     0.02333971   -0.03600699   -0.03198827
     atom    5 type  1   force =     0.00591648   -0.00097339    0.00804192
     atom    6 type  1   force =    -0.00406489   -0.00508430    0.01599039
     atom    7 type  1   force =    -0.00613164    0.00380294   -0.08467810
     atom    8 type  1   force =    -0.01162580    0.00973805   -0.01251582
     atom    9 type  1   force =     0.05386459   -0.00427850    0.06776655
     atom   10 type  1   force =    -0.00769030   -0.00533442   -0.01203789
     atom   11 type  1   force =     0.03583473    0.01315649   -0.01892627
     atom   12 type  1   force =    -0.08465293   -0.03477065    0.05506367
     atom   13 type  1   force =     0.02422702   -0.05917850   -0.00022534
     atom   14 type  1   force =    -0.02488518   -0.01857744   -0.01392278
     atom   15 type  1   force =    -0.06833083    0.00432454    0.04901537
     atom   16 type  1   force =     0.01985492    0.04073589   -0.00990871
     atom   17 type  1   force =     0.01455003    0.00047194   -0.06788037
     atom   18 type  1   force =    -0.02322733    0.02858596    0.05699761
     atom   19 type  1   force =     0.01629978   -0.00326772   -0.04890635
     atom   20 type  1   force =     0.02054169    0.02083032   -0.01602809
     atom   21 type  1   force =    -0.00310719   -0.01111813    0.01679546
     atom   22 type  1   force =     0.03074876   -0.02908794    0.02876387
     atom   23 type  1   force =     0.01204413   -0.00332032    0.00722128
     atom   24 type  1   force =    -0.03721816    0.01592489    0.00626548
     atom   25 type  1   force =     0.01876270   -0.00550746   -0.02331253
     atom   26 type  1   force =    -0.03062823   -0.00812909    0.02817912
     atom   27 type  1   force =    -0.04123199   -0.01440429    0.02246433
     atom   28 type  1   force =     0.01802902    0.01178189   -0.01129105
     atom   29 type  1   force =     0.04111985   -0.01827234   -0.00311233
     atom   30 type  1   force =    -0.05177300    0.00700639   -0.01781167
     atom   31 type  1   force =    -0.01757214   -0.04476896    0.03366651
     atom   32 type  1   force =     0.00767182   -0.00262029    0.00642408
     atom   33 type  1   force =    -0.02614018   -0.01743809    0.00712766
     atom   34 type  1   force =     0.05064265    0.00972041    0.09290809
     atom   35 type  1   force =     0.08187987    0.00407897   -0.00894423
     atom   36 type  1   force =    -0.03344567   -0.01124709   -0.07476665
     atom   37 type  1   force =     0.00959574   -0.01887704   -0.02430797
     atom   38 type  1   force =    -0.01420839    0.01088879    0.00374194
     atom   39 type  1   force =    -0.00999417    0.00889120   -0.01566261
     atom   40 type  1   force =     0.04785435    0.04498492    0.01973375
     atom   41 type  1   force =    -0.04503962   -0.02000305   -0.05147845
     atom   42 type  1   force =    -0.03157143    0.02140467    0.03185893
     atom   43 type  1   force =     0.00236964   -0.00197836    0.00396230
     atom   44 type  1   force =     0.04526819   -0.00485024    0.02286829
     atom   45 type  2   force =    -0.06455930    0.01564884   -0.03514204
     atom   46 type  2   force =     0.02179364   -0.02562932    0.08946453
     atom   47 type  2   force =    -0.00047352    0.00143158   -0.01182863
     atom   48 type  2   force =     0.04341162    0.00308544    0.11449349
     atom   49 type  2   force =    -0.04002154   -0.02753233   -0.04961383
     atom   50 type  2   force =     0.05246546    0.02073988   -0.04572309
     atom   51 type  2   force =     0.00074502    0.07107640    0.01593575
     atom   52 type  2   force =     0.03667032   -0.04640359   -0.04132718
     atom   53 type  2   force =    -0.00918402   -0.01261874    0.02959035
     atom   54 type  2   force =    -0.03170378   -0.01080974    0.08040316
     atom   55 type  2   force =    -0.02215971    0.04082299   -0.05174308
     atom   56 type  2   force =     0.02332127   -0.02356814    0.00343896
     atom   57 type  2   force =     0.01143207    0.02344857   -0.02045801
     atom   58 type  2   force =     0.00065445   -0.00204801   -0.01468794
     atom   59 type  2   force =     0.01454206    0.00477766    0.01063670
     atom   60 type  2   force =     0.00042300    0.04251431   -0.04622352
     atom   61 type  2   force =    -0.00946771   -0.01898550   -0.12018730
     atom   62 type  2   force =    -0.06506131    0.01806316    0.06806380
     atom   63 type  2   force =    -0.00686511    0.01966867    0.00530766
     atom   64 type  2   force =    -0.03315412   -0.03540051   -0.01148347
     atom   65 type  2   force =     0.09343624    0.00906314    0.02372014
     atom   66 type  2   force =    -0.04357459    0.01593890   -0.01052529
     The non-local contrib.  to forces
     atom    1 type  1   force =     0.08989367    0.02478228    0.00190869
     atom    2 type  1   force =    -0.00093120   -0.06082691    0.08506486
     atom    3 type  1   force =    -0.03279254    0.03791616   -0.04379885
     atom    4 type  1   force =     0.04546989   -0.06744323   -0.05307527
     atom    5 type  1   force =    -0.05663657    0.09033462    0.02298049
     atom    6 type  1   force =     0.03468415   -0.01371142    0.06659498
     atom    7 type  1   force =    -0.02516210    0.01241039   -0.07163012
     atom    8 type  1   force =     0.08702778   -0.02593229   -0.03073268
     atom    9 type  1   force =     0.06013416   -0.02388478    0.05937511
     atom   10 type  1   force =    -0.04837379   -0.07514652   -0.03434666
     atom   11 type  1   force =     0.03003791    0.06080177   -0.08022827
     atom   12 type  1   force =    -0.07468842   -0.00057282    0.02338325
     atom   13 type  1   force =     0.05323811   -0.06018456    0.00672316
     atom   14 type  1   force =    -0.08437577   -0.04245561   -0.03459017
     atom   15 type  1   force =    -0.07321071    0.01102010    0.05176160
     atom   16 type  1   force =     0.03122111    0.08528809   -0.03396141
     atom   17 type  1   force =     0.00202320    0.01100829   -0.09447312
     atom   18 type  1   force =    -0.06870082    0.03613316    0.03948674
     atom   19 type  1   force =     0.00649042   -0.03916468   -0.07430584
     atom   20 type  1   force =     0.03686196    0.07342735   -0.02435192
     atom   21 type  1   force =    -0.02946843   -0.02157855    0.08379632
     atom   22 type  1   force =    -0.09000021    0.06348736   -0.04923695
     atom   23 type  1   force =     0.09874993   -0.00743773   -0.04602101
     atom   24 type  1   force =    -0.05984360    0.03818107   -0.05364524
     atom   25 type  1   force =     0.06079309   -0.05648831   -0.05986655
     atom   26 type  1   force =    -0.04835800   -0.05653491    0.05736587
     atom   27 type  1   force =    -0.08011605   -0.01721446    0.00213698
     atom   28 type  1   force =     0.02135528    0.08582113   -0.05205301
     atom   29 type  1   force =     0.07395910   -0.03769911   -0.05322227
     atom   30 type  1   force =    -0.08291514   -0.00206326   -0.04052531
     atom   31 type  1   force =    -0.03708421   -0.05993342    0.06289596
     atom   32 type  1   force =     0.03666716    0.06600930    0.05734717
     atom   33 type  1   force =    -0.09347557    0.01297153   -0.00542606
     atom   34 type  1   force =     0.02755065    0.01949718    0.06161933
     atom   35 type  1   force =     0.08868629    0.00411897   -0.00586648
     atom   36 type  1   force =    -0.02441344   -0.02102478   -0.07375843
     atom   37 type  1   force =     0.03915309   -0.08900127   -0.02791798
     atom   38 type  1   force =     0.03518390    0.02996766    0.09989660
     atom   39 type  1   force =    -0.01700925   -0.08866919    0.04875927
     atom   40 type  1   force =     0.07647002    0.03554087    0.01981068
     atom   41 type  1   force =    -0.04807675   -0.02820510   -0.07498041
     atom   42 type  1   force =    -0.05898903    0.04264242    0.04921335
     atom   43 type  1   force =    -0.05610149    0.02712858    0.08924946
     atom   44 type  1   force =     0.07035445   -0.03019024    0.02487552
     atom   45 type  2   force =    -1.43551785    0.45485376   -1.58308631
     atom   46 type  2   force =    -0.22721262    0.33520809    1.91427183
     atom   47 type  2   force =     0.18195991   -1.29452773   -1.41525575
     atom   48 type  2   force =    -0.80977973    0.09471613    1.87515014
     atom   49 type  2   force =    -0.38745718    1.66296663   -0.56378952
     atom   50 type  2   force =     1.06180592   -1.16910381    0.81093010
     atom   51 type  2   force =     0.50921264    1.92810377    0.75125046
     atom   52 type  2   force =     0.74790888   -1.72704023   -0.51105725
     atom   53 type  2   force =     1.30844433   -0.96357781    1.19874323
     atom   54 type  2   force =    -0.60427398   -0.59772495    1.56801404
     atom   55 type  2   force =     1.78530965   -0.61008632   -0.73778233
     atom   56 type  2   force =    -0.56642400   -0.48931635    1.80937764
     atom   57 type  2   force =     0.02018742    1.96821518    0.15061467
     atom   58 type  2   force =     1.01810507   -1.17341839    0.57157046
     atom   59 type  2   force =     0.23801738    0.78131071    1.69047346
     atom   60 type  2   force =     0.01614908    0.13314941   -1.91372949
     atom   61 type  2   force =     0.98109605   -0.64939210   -1.46565951
     atom   62 type  2   force =    -1.37680819    0.24043681    1.71033629
     atom   63 type  2   force =    -1.22596890    1.16692822   -1.24880914
     atom   64 type  2   force =    -1.08330954    0.75149803   -0.88799179
     atom   65 type  2   force =     1.87021228   -0.31562347    0.55165149
     atom   66 type  2   force =    -0.28743910    0.27349837   -2.00717262
     The ionic contribution  to forces
     atom    1 type  1   force =    -2.02577273    0.96847807   -1.56947297
     atom    2 type  1   force =     0.75389615    3.55600355   -4.14851678
     atom    3 type  1   force =    -0.49917193    0.53603216    2.32361239
     atom    4 type  1   force =    -2.81980575    4.10102551    2.53332879
     atom    5 type  1   force =     3.91030170   -4.07363684   -0.66593191
     atom    6 type  1   force =     1.33827118   -0.47923460   -1.83167923
     atom    7 type  1   force =     1.15364204    1.11046395    1.26202005
     atom    8 type  1   force =    -2.38735691    2.69939054   -0.41422106
     atom    9 type  1   force =    -2.40618830   -0.03339621   -4.46234671
     atom   10 type  1   force =     1.25893081    1.72553227   -1.35072760
     atom   11 type  1   force =    -2.71952503   -3.27814316    3.84959641
     atom   12 type  1   force =     1.02028767   -0.74822701    0.15270315
     atom   13 type  1   force =     0.22277716    2.73813718   -1.23597821
     atom   14 type  1   force =     4.72761185    2.25026584    0.35667769
     atom   15 type  1   force =     4.26848185    0.86800588   -1.21996156
     atom   16 type  1   force =     0.44879195   -2.39469145    1.82763242
     atom   17 type  1   force =    -0.70596991   -0.84994250    5.45448113
     atom   18 type  1   force =     1.07158085   -2.10346068    1.27409314
     atom   19 type  1   force =    -1.83240675    3.08121518    1.86744868
     atom   20 type  1   force =    -2.91414110   -1.14153842    0.20384510
     atom   21 type  1   force =     2.51979102   -0.25385935   -0.99241826
     atom   22 type  1   force =     4.17974759   -2.93358609    3.00191042
     atom   23 type  1   force =    -5.68892805    0.10110893    1.83217165
     atom   24 type  1   force =    -0.43221229   -1.36855752    1.88047799
     atom   25 type  1   force =    -3.81061313    0.02530771    1.11961060
     atom   26 type  1   force =     0.31662200    0.18970662   -3.21249162
     atom   27 type  1   force =     1.65655542    1.99967878    1.58638011
     atom   28 type  1   force =    -1.82282288   -1.68901622    3.53887611
     atom   29 type  1   force =    -2.41419998    2.30030082    1.79625606
     atom   30 type  1   force =     2.99845155    1.28669091    1.15501627
     atom   31 type  1   force =     1.43407425    0.48665341   -1.46881704
     atom   32 type  1   force =    -1.00405194   -4.15717586   -1.01557182
     atom   33 type  1   force =     3.12617316   -1.40736437    2.05389297
     atom   34 type  1   force =    -0.25776786   -2.06703028   -0.40227113
     atom   35 type  1   force =    -4.88703124    0.38140318   -1.31754819
     atom   36 type  1   force =    -0.95910196    1.83394589    0.26171149
     atom   37 type  1   force =    -0.60546729    2.16949740   -0.59284081
     atom   38 type  1   force =    -0.42372836   -2.17544286   -5.02694554
     atom   39 type  1   force =     2.18851010    2.03824125   -2.44145617
     atom   40 type  1   force =    -0.54728549   -2.51618409   -1.98821223
     atom   41 type  1   force =     2.51861548    2.58805269    4.31036153
     atom   42 type  1   force =     2.87114895    0.83237806    0.00759075
     atom   43 type  1   force =     1.92257679   -3.20342057   -3.84566269
     atom   44 type  1   force =    -2.77068663   -1.72466339   -1.33850429
     atom   45 type  2   force =     6.90034170    9.73381501   -4.63477346
     atom   46 type  2   force =    -7.65415135   11.58606931    1.51312018
     atom   47 type  2   force =    13.97333482   -2.48559787    3.77086701
     atom   48 type  2   force =     3.58369945    8.69620158  -11.90150423
     atom   49 type  2   force =    -1.30032437   -7.42026308  -12.91695387
     atom   50 type  2   force =   -11.74540304   -4.20022735    5.97925136
     atom   51 type  2   force =    10.18592131    0.87488559   -8.83352955
     atom   52 type  2   force =     9.75584672    8.23665224    4.58299740
     atom   53 type  2   force =    -8.03340942   -1.72476060   12.64576656
     atom   54 type  2   force =    -8.27654212   11.31126396   -5.23042007
     atom   55 type  2   force =     6.39729863   -4.78195834   11.42597574
     atom   56 type  2   force =   -14.29466792   -0.55571635   -1.99486975
     atom   57 type  2   force =    -9.82284664  -12.80851002   -6.62296671
     atom   58 type  2   force =    -7.37529888    9.30266640    9.84799152
     atom   59 type  2   force =     0.98200962    4.85983414   -2.50124045
     atom   60 type  2   force =     0.72606986  -11.69870149    6.71167852
     atom   61 type  2   force =     1.74846262   -5.35166719   13.70430073
     atom   62 type  2   force =    -7.39473213    4.42243313  -14.85614155
     atom   63 type  2   force =     5.84113796   -8.77631955   -7.28003448
     atom   64 type  2   force =    11.84756832   -6.79256340   -5.73829288
     atom   65 type  2   force =     2.71946639   12.30275854    9.08862440
     atom   66 type  2   force =    -0.73638553  -15.99923896    0.13203451
     The local contribution  to forces
     atom    1 type  1   force =     1.97312825   -1.00068368    1.59032699
     atom    2 type  1   force =    -0.73350790   -3.50106757    4.07851892
     atom    3 type  1   force =     0.49466917   -0.52107028   -2.33664147
     atom    4 type  1   force =     2.79766192   -4.06956619   -2.51216221
     atom    5 type  1   force =    -3.84776712    3.98236093    0.65108091
     atom    6 type  1   force =    -1.37703581    0.48789083    1.78116264
     atom    7 type  1   force =    -1.13462953   -1.11904350   -1.27498022
     atom    8 type  1   force =     2.28868958   -2.66369373    0.43252464
     atom    9 type  1   force =     2.39990065    0.05303533    4.47082321
     atom   10 type  1   force =    -1.21826435   -1.65569229    1.37312151
     atom   11 type  1   force =     2.72530100    3.23052251   -3.78820214
     atom   12 type  1   force =    -1.03026540    0.71405651   -0.12093659
     atom   13 type  1   force =    -0.25181424   -2.73709396    1.22911515
     atom   14 type  1   force =    -4.66813194   -2.22635748   -0.33592109
     atom   15 type  1   force =    -4.26361735   -0.87467324    1.21730150
     atom   16 type  1   force =    -0.46017455    2.35016689   -1.80348979
     atom   17 type  1   force =     0.71847986    0.83943380   -5.42779294
     atom   18 type  1   force =    -1.02611181    2.09593694   -1.25649889
     atom   19 type  1   force =     1.84219935   -3.04528882   -1.84195657
     atom   20 type  1   force =     2.89780252    1.08896650   -0.19542839
     atom   21 type  1   force =    -2.49344916    0.26434776    0.92550786
     atom   22 type  1   force =    -4.05902346    2.84104223   -2.92382237
     atom   23 type  1   force =     5.60221546   -0.09696288   -1.77884647
     atom   24 type  1   force =     0.45481315    1.34633535   -1.82048566
     atom   25 type  1   force =     3.76857245    0.02569264   -1.08297652
     atom   26 type  1   force =    -0.29891390   -0.14128320    3.18339829
     atom   27 type  1   force =    -1.61769856   -1.99684350   -1.56596439
     atom   28 type  1   force =     1.81948305    1.61501470   -3.49803164
     atom   29 type  1   force =     2.38134790   -2.28084648   -1.74606272
     atom   30 type  1   force =    -2.96733201   -1.27759122   -1.13221902
     atom   31 type  1   force =    -1.41457933   -0.47146243    1.43967129
     atom   32 type  1   force =     0.97503973    4.08857225    0.96473359
     atom   33 type  1   force =    -3.05886046    1.37698227   -2.04124865
     atom   34 type  1   force =     0.28084847    2.05728191    0.43365667
     atom   35 type  1   force =     4.88021922   -0.38141475    1.31455208
     atom   36 type  1   force =     0.95005367   -1.82414204   -0.26264340
     atom   37 type  1   force =     0.57589202   -2.09934223    0.59653718
     atom   38 type  1   force =     0.37431888    2.15639104    4.93087515
     atom   39 type  1   force =    -2.18151151   -1.94065534    2.37712192
     atom   40 type  1   force =     0.51865392    2.52565710    1.98822091
     atom   41 type  1   force =    -2.51559634   -2.57982270   -4.28677064
     atom   42 type  1   force =    -2.84374743   -0.85358995   -0.02486060
     atom   43 type  1   force =    -1.86412201    3.17434078    3.76045960
     atom   44 type  1   force =     2.74557594    1.75003538    1.33657841
     atom   45 type  2   force =    -5.54380981  -10.16870780    6.16731576
     atom   46 type  2   force =     7.90062648  -11.94332252   -3.31829595
     atom   47 type  2   force =   -14.15251561    3.76833465   -2.38078439
     atom   48 type  2   force =    -2.73753611   -8.78665512   10.15937280
     atom   49 type  2   force =     1.64288142    5.74593138   13.42411550
     atom   50 type  2   force =    10.74659400    5.37778019   -6.82699641
     atom   51 type  2   force =   -10.68937089   -2.71309082    8.10535656
     atom   52 type  2   force =   -10.45953027   -6.57281261   -4.11929856
     atom   53 type  2   force =     6.72859721    2.66542553  -13.80192341
     atom   54 type  2   force =     8.84355320  -10.72986448    3.75883542
     atom   55 type  2   force =    -8.18760186    5.42645929  -10.74684130
     atom   56 type  2   force =    14.87829255    1.01559972    0.20746412
     atom   57 type  2   force =     9.81392895   10.88306048    6.45312739
     atom   58 type  2   force =     6.36741282   -8.14285830  -10.42920348
     atom   59 type  2   force =    -1.20237755   -5.62780622    0.83834444
     atom   60 type  2   force =    -0.74100722   11.60975924   -4.86288809
     atom   61 type  2   force =    -2.72900400    5.97558075  -12.37439235
     atom   62 type  2   force =     8.69187880   -4.64238563   13.23043937
     atom   63 type  2   force =    -4.63354788    7.64050835    8.52170374
     atom   64 type  2   force =   -10.80865486    6.01279216    6.60538935
     atom   65 type  2   force =    -4.47652784  -11.97991710   -9.61060836
     atom   66 type  2   force =     0.97730335   15.74360728    1.84429948
     The core correction contribution to forces
     atom    1 type  1   force =     0.00000000    0.00000000    0.00000000
     atom    2 type  1   force =     0.00000000    0.00000000    0.00000000
     atom    3 type  1   force =     0.00000000    0.00000000    0.00000000
     atom    4 type  1   force =     0.00000000    0.00000000    0.00000000
     atom    5 type  1   force =     0.00000000    0.00000000    0.00000000
     atom    6 type  1   force =     0.00000000    0.00000000    0.00000000
     atom    7 type  1   force =     0.00000000    0.00000000    0.00000000
     atom    8 type  1   force =     0.00000000    0.00000000    0.00000000
     atom    9 type  1   force =     0.00000000    0.00000000    0.00000000
     atom   10 type  1   force =     0.00000000    0.00000000    0.00000000
     atom   11 type  1   force =     0.00000000    0.00000000    0.00000000
     atom   12 type  1   force =     0.00000000    0.00000000    0.00000000
     atom   13 type  1   force =     0.00000000    0.00000000    0.00000000
     atom   14 type  1   force =     0.00000000    0.00000000    0.00000000
     atom   15 type  1   force =     0.00000000    0.00000000    0.00000000
     atom   16 type  1   force =     0.00000000    0.00000000    0.00000000
     atom   17 type  1   force =     0.00000000    0.00000000    0.00000000
     atom   18 type  1   force =     0.00000000    0.00000000    0.00000000
     atom   19 type  1   force =     0.00000000    0.00000000    0.00000000
     atom   20 type  1   force =     0.00000000    0.00000000    0.00000000
     atom   21 type  1   force =     0.00000000    0.00000000    0.00000000
     atom   22 type  1   force =     0.00000000    0.00000000    0.00000000
     atom   23 type  1   force =     0.00000000    0.00000000    0.00000000
     atom   24 type  1   force =     0.00000000    0.00000000    0.00000000
     atom   25 type  1   force =     0.00000000    0.00000000    0.00000000
     atom   26 type  1   force =     0.00000000    0.00000000    0.00000000
     atom   27 type  1   force =     0.00000000    0.00000000    0.00000000
     atom   28 type  1   force =     0.00000000    0.00000000    0.00000000
     atom   29 type  1   force =     0.00000000    0.00000000    0.00000000
     atom   30 type  1   force =     0.00000000    0.00000000    0.00000000
     atom   31 type  1   force =     0.00000000    0.00000000    0.00000000
     atom   32 type  1   force =     0.00000000    0.00000000    0.00000000
     atom   33 type  1   force =     0.00000000    0.00000000    0.00000000
     atom   34 type  1   force =     0.00000000    0.00000000    0.00000000
     atom   35 type  1   force =     0.00000000    0.00000000    0.00000000
     atom   36 type  1   force =     0.00000000    0.00000000    0.00000000
     atom   37 type  1   force =     0.00000000    0.00000000    0.00000000
     atom   38 type  1   force =     0.00000000    0.00000000    0.00000000
     atom   39 type  1   force =     0.00000000    0.00000000    0.00000000
     atom   40 type  1   force =     0.00000000    0.00000000    0.00000000
     atom   41 type  1   force =     0.00000000    0.00000000    0.00000000
     atom   42 type  1   force =     0.00000000    0.00000000    0.00000000
     atom   43 type  1   force =     0.00000000    0.00000000    0.00000000
     atom   44 type  1   force =     0.00000000    0.00000000    0.00000000
     atom   45 type  2   force =     0.01441523   -0.00427137    0.01547751
     atom   46 type  2   force =     0.00250825   -0.00355573   -0.01958019
     atom   47 type  2   force =    -0.00326762    0.01326508    0.01343331
     atom   48 type  2   force =     0.00700042   -0.00115491   -0.01843359
     atom   49 type  2   force =     0.00488699   -0.01611172    0.00710896
     atom   50 type  2   force =    -0.01057814    0.01230069   -0.00879180
     atom   51 type  2   force =    -0.00502219   -0.01878859   -0.00704618
     atom   52 type  2   force =    -0.00755690    0.01682896    0.00612284
     atom   53 type  2   force =    -0.01283108    0.01032790   -0.01289548
     atom   54 type  2   force =     0.00554214    0.00555156   -0.01589186
     atom   55 type  2   force =    -0.01721254    0.00643410    0.00703438
     atom   56 type  2   force =     0.00610293    0.00591163   -0.01843102
     atom   57 type  2   force =     0.00015460   -0.01933118   -0.00115871
     atom   58 type  2   force =    -0.00954950    0.01157420   -0.00492763
     atom   59 type  2   force =    -0.00313527   -0.00851462   -0.01685247
     atom   60 type  2   force =    -0.00081635   -0.00168812    0.01877850
     atom   61 type  2   force =    -0.00997688    0.00650199    0.01567370
     atom   62 type  2   force =     0.01460835   -0.00239358   -0.01653494
     atom   63 type  2   force =     0.01149525   -0.01142640    0.01251628
     atom   64 type  2   force =     0.01123138   -0.00708119    0.00949547
     atom   65 type  2   force =    -0.01975425    0.00186152   -0.00586160
     atom   66 type  2   force =     0.00293842   -0.00190317    0.02036100
     The Hubbard contrib.    to forces
     atom    1 type  1   force =     0.00000000    0.00000000    0.00000000
     atom    2 type  1   force =     0.00000000    0.00000000    0.00000000
     atom    3 type  1   force =     0.00000000    0.00000000    0.00000000
     atom    4 type  1   force =     0.00000000    0.00000000    0.00000000
     atom    5 type  1   force =     0.00000000    0.00000000    0.00000000
     atom    6 type  1   force =     0.00000000    0.00000000    0.00000000
     atom    7 type  1   force =     0.00000000    0.00000000    0.00000000
     atom    8 type  1   force =     0.00000000    0.00000000    0.00000000
     atom    9 type  1   force =     0.00000000    0.00000000    0.00000000
     atom   10 type  1   force =     0.00000000    0.00000000    0.00000000
     atom   11 type  1   force =     0.00000000    0.00000000    0.00000000
     atom   12 type  1   force =     0.00000000    0.00000000    0.00000000
     atom   13 type  1   force =     0.00000000    0.00000000    0.00000000
     atom   14 type  1   force =     0.00000000    0.00000000    0.00000000
     atom   15 type  1   force =     0.00000000    0.00000000    0.00000000
     atom   16 type  1   force =     0.00000000    0.00000000    0.00000000
     atom   17 type  1   force =     0.00000000    0.00000000    0.00000000
     atom   18 type  1   force =     0.00000000    0.00000000    0.00000000
     atom   19 type  1   force =     0.00000000    0.00000000    0.00000000
     atom   20 type  1   force =     0.00000000    0.00000000    0.00000000
     atom   21 type  1   force =     0.00000000    0.00000000    0.00000000
     atom   22 type  1   force =     0.00000000    0.00000000    0.00000000
     atom   23 type  1   force =     0.00000000    0.00000000    0.00000000
     atom   24 type  1   force =     0.00000000    0.00000000    0.00000000
     atom   25 type  1   force =     0.00000000    0.00000000    0.00000000
     atom   26 type  1   force =     0.00000000    0.00000000    0.00000000
     atom   27 type  1   force =     0.00000000    0.00000000    0.00000000
     atom   28 type  1   force =     0.00000000    0.00000000    0.00000000
     atom   29 type  1   force =     0.00000000    0.00000000    0.00000000
     atom   30 type  1   force =     0.00000000    0.00000000    0.00000000
     atom   31 type  1   force =     0.00000000    0.00000000    0.00000000
     atom   32 type  1   force =     0.00000000    0.00000000    0.00000000
     atom   33 type  1   force =     0.00000000    0.00000000    0.00000000
     atom   34 type  1   force =     0.00000000    0.00000000    0.00000000
     atom   35 type  1   force =     0.00000000    0.00000000    0.00000000
     atom   36 type  1   force =     0.00000000    0.00000000    0.00000000
     atom   37 type  1   force =     0.00000000    0.00000000    0.00000000
     atom   38 type  1   force =     0.00000000    0.00000000    0.00000000
     atom   39 type  1   force =     0.00000000    0.00000000    0.00000000
     atom   40 type  1   force =     0.00000000    0.00000000    0.00000000
     atom   41 type  1   force =     0.00000000    0.00000000    0.00000000
     atom   42 type  1   force =     0.00000000    0.00000000    0.00000000
     atom   43 type  1   force =     0.00000000    0.00000000    0.00000000
     atom   44 type  1   force =     0.00000000    0.00000000    0.00000000
     atom   45 type  2   force =     0.00000000    0.00000000    0.00000000
     atom   46 type  2   force =     0.00000000    0.00000000    0.00000000
     atom   47 type  2   force =     0.00000000    0.00000000    0.00000000
     atom   48 type  2   force =     0.00000000    0.00000000    0.00000000
     atom   49 type  2   force =     0.00000000    0.00000000    0.00000000
     atom   50 type  2   force =     0.00000000    0.00000000    0.00000000
     atom   51 type  2   force =     0.00000000    0.00000000    0.00000000
     atom   52 type  2   force =     0.00000000    0.00000000    0.00000000
     atom   53 type  2   force =     0.00000000    0.00000000    0.00000000
     atom   54 type  2   force =     0.00000000    0.00000000    0.00000000
     atom   55 type  2   force =     0.00000000    0.00000000    0.00000000
     atom   56 type  2   force =     0.00000000    0.00000000    0.00000000
     atom   57 type  2   force =     0.00000000    0.00000000    0.00000000
     atom   58 type  2   force =     0.00000000    0.00000000    0.00000000
     atom   59 type  2   force =     0.00000000    0.00000000    0.00000000
     atom   60 type  2   force =     0.00000000    0.00000000    0.00000000
     atom   61 type  2   force =     0.00000000    0.00000000    0.00000000
     atom   62 type  2   force =     0.00000000    0.00000000    0.00000000
     atom   63 type  2   force =     0.00000000    0.00000000    0.00000000
     atom   64 type  2   force =     0.00000000    0.00000000    0.00000000
     atom   65 type  2   force =     0.00000000    0.00000000    0.00000000
     atom   66 type  2   force =     0.00000000    0.00000000    0.00000000
     The SCF correction term to forces
     atom    1 type  1   force =    -0.00000812   -0.00000243    0.00000066
     atom    2 type  1   force =    -0.00000068    0.00000571   -0.00000782
     atom    3 type  1   force =    -0.00000013   -0.00000098    0.00000315
     atom    4 type  1   force =    -0.00000335    0.00000473    0.00000711
     atom    5 type  1   force =     0.00000147   -0.00000428   -0.00000089
     atom    6 type  1   force =    -0.00000140   -0.00000130   -0.00000131
     atom    7 type  1   force =     0.00000095   -0.00000008   -0.00000114
     atom    8 type  1   force =    -0.00000324    0.00000134   -0.00000004
     atom    9 type  1   force =     0.00000109   -0.00000503    0.00000162
     atom   10 type  1   force =     0.00000003   -0.00000006    0.00000154
     atom   11 type  1   force =     0.00000386    0.00000317   -0.00000559
     atom   12 type  1   force =    -0.00000377    0.00000049    0.00000055
     atom   13 type  1   force =     0.00000900   -0.00000935    0.00000124
     atom   14 type  1   force =    -0.00000631   -0.00000238   -0.00000253
     atom   15 type  1   force =    -0.00000161   -0.00000038    0.00000052
     atom   16 type  1   force =    -0.00000059    0.00000018   -0.00000325
     atom   17 type  1   force =    -0.00000011    0.00000016   -0.00000876
     atom   18 type  1   force =    -0.00001254    0.00000436    0.00000330
     atom   19 type  1   force =    -0.00000023   -0.00000159   -0.00000594
     atom   20 type  1   force =     0.00000132    0.00000271   -0.00000621
     atom   21 type  1   force =     0.00000239   -0.00000017   -0.00000378
     atom   22 type  1   force =     0.00000786   -0.00000362   -0.00000055
     atom   23 type  1   force =    -0.00001020   -0.00000082    0.00000379
     atom   24 type  1   force =     0.00000758   -0.00000620    0.00000507
     atom   25 type  1   force =    -0.00000670    0.00000831    0.00000662
     atom   26 type  1   force =     0.00000469    0.00001022   -0.00000673
     atom   27 type  1   force =     0.00001021    0.00000270   -0.00000169
     atom   28 type  1   force =    -0.00000341   -0.00000990    0.00000418
     atom   29 type  1   force =    -0.00000415    0.00000024    0.00000329
     atom   30 type  1   force =     0.00000562   -0.00000224    0.00000307
     atom   31 type  1   force =     0.00000016    0.00000130    0.00000299
     atom   32 type  1   force =    -0.00000012    0.00000184    0.00000181
     atom   33 type  1   force =     0.00000570    0.00000028   -0.00000392
     atom   34 type  1   force =    -0.00000559   -0.00000059   -0.00001010
     atom   35 type  1   force =    -0.00001139   -0.00000062    0.00000504
     atom   36 type  1   force =    -0.00000094    0.00000165    0.00001038
     atom   37 type  1   force =     0.00000092   -0.00000313    0.00000033
     atom   38 type  1   force =     0.00000021    0.00000077    0.00000241
     atom   39 type  1   force =    -0.00000050    0.00000229   -0.00000095
     atom   40 type  1   force =    -0.00000108   -0.00000115    0.00000107
     atom   41 type  1   force =     0.00000100   -0.00000013   -0.00000225
     atom   42 type  1   force =    -0.00000091    0.00000195    0.00000211
     atom   43 type  1   force =    -0.00000064    0.00000065    0.00000261
     atom   44 type  1   force =     0.00000744   -0.00000417    0.00000532
     atom   45 type  2   force =    -0.00000556   -0.00001295    0.00001115
     atom   46 type  2   force =     0.00000589   -0.00000065    0.00003534
     atom   47 type  2   force =    -0.00000201   -0.00001475   -0.00000213
     atom   48 type  2   force =     0.00001060    0.00000557   -0.00000495
     atom   49 type  2   force =    -0.00002539   -0.00002772   -0.00000821
     atom   50 type  2   force =     0.00002972    0.00001796   -0.00002967
     atom   51 type  2   force =    -0.00001284   -0.00000573   -0.00000885
     atom   52 type  2   force =    -0.00001510   -0.00000414   -0.00000493
     atom   53 type  2   force =    -0.00000206   -0.00000594   -0.00001388
     atom   54 type  2   force =    -0.00000001   -0.00000801   -0.00004770
     atom   55 type  2   force =     0.00002942    0.00000207   -0.00004288
     atom   56 type  2   force =     0.00000072   -0.00001897   -0.00001535
     atom   57 type  2   force =    -0.00000926    0.00004192    0.00001203
     atom   58 type  2   force =    -0.00003205    0.00001588   -0.00003213
     atom   59 type  2   force =     0.00001089   -0.00001854   -0.00000160
     atom   60 type  2   force =     0.00001063    0.00002309    0.00002373
     atom   61 type  2   force =    -0.00006250    0.00001885   -0.00002320
     atom   62 type  2   force =    -0.00002513    0.00000025    0.00005130
     atom   63 type  2   force =     0.00000146    0.00000586    0.00001793
     atom   64 type  2   force =    -0.00000640   -0.00001829    0.00000305
     atom   65 type  2   force =     0.00002267    0.00001146    0.00000089
     atom   66 type  2   force =    -0.00000873    0.00000319    0.00003903

     Total force =     0.490859     Total SCF correction =     0.000178


     Computing stress (Cartesian axis) and pressure


     negative rho (up, down):  5.007E-01 0.000E+00
          total   stress  (Ry/bohr**3)                   (kbar)     P=       -2.91
  -0.00002006  -0.00000021  -0.00000009           -2.95       -0.03       -0.01
  -0.00000021  -0.00001894  -0.00000009           -0.03       -2.79       -0.01
  -0.00000009  -0.00000009  -0.00002042           -0.01       -0.01       -3.00


     init_run     :      7.49s CPU      7.90s WALL (       1 calls)
     electrons    :     81.92s CPU     87.67s WALL (       1 calls)
     forces       :      5.57s CPU      5.86s WALL (       1 calls)
     stress       :     16.66s CPU     16.97s WALL (       1 calls)

     Called by init_run:
     wfcinit      :      2.74s CPU      2.92s WALL (       1 calls)
     potinit      :      1.31s CPU      1.36s WALL (       1 calls)
     hinit0       :      0.99s CPU      1.07s WALL (       1 calls)

     Called by electrons:
     c_bands      :     54.84s CPU     57.90s WALL (      11 calls)
     sum_band     :     15.16s CPU     16.40s WALL (      11 calls)
     v_of_rho     :      7.13s CPU      7.73s WALL (      12 calls)
     newd         :      3.21s CPU      4.07s WALL (      12 calls)
     PAW_pot      :      1.14s CPU      1.14s WALL (      12 calls)
     mix_rho      :      1.20s CPU      1.28s WALL (      11 calls)

     Called by c_bands:
     init_us_2    :      0.73s CPU      0.76s WALL (      23 calls)
     init_us_2:cp :      0.73s CPU      0.76s WALL (      23 calls)
     regterg      :     53.84s CPU     56.89s WALL (      11 calls)

     Called by *egterg:
     rdiaghg      :      0.26s CPU      0.26s WALL (      35 calls)
     h_psi        :     47.91s CPU     50.54s WALL (      36 calls)
     s_psi        :      1.52s CPU      1.52s WALL (      36 calls)
     g_psi        :      0.15s CPU      0.15s WALL (      24 calls)

     Called by h_psi:
     h_psi:calbec :      1.54s CPU      1.55s WALL (      36 calls)
     vloc_psi     :     44.46s CPU     47.06s WALL (      36 calls)
     add_vuspsi   :      1.52s CPU      1.52s WALL (      36 calls)

     General routines
     calbec       :      2.30s CPU      2.32s WALL (      52 calls)
     fft          :      3.91s CPU      4.49s WALL (     128 calls)
     ffts         :      0.27s CPU      0.31s WALL (      11 calls)
     fftw         :     39.45s CPU     42.37s WALL (    3166 calls)

     Parallel routines

     PWSCF        :   1m51.75s CPU   1m58.57s WALL


   This run was terminated on:   1:42:20  28Mar2024            

=------------------------------------------------------------------------------=
   JOB DONE.
=------------------------------------------------------------------------------=
