
     Program PWSCF v.7.2 starts on 27Mar2024 at 22:12: 7 

     This program is part of the open-source Quantum ESPRESSO suite
     for quantum simulation of materials; please cite
         "P. Giannozzi et al., J. Phys.:Condens. Matter 21 395502 (2009);
         "P. Giannozzi et al., J. Phys.:Condens. Matter 29 465901 (2017);
         "P. Giannozzi et al., J. Chem. Phys. 152 154105 (2020);
          URL http://www.quantum-espresso.org", 
     in publications or presentations arising from this work. More details at
     http://www.quantum-espresso.org/quote

     Parallel version (MPI), running on    32 processors

     MPI processes distributed on     1 nodes
     175128 MiB available memory on the printing compute node when the environment starts

     Reading input from pw-wt-388.in
Warning: card &CELL ignored
Warning: card / ignored

     Current dimensions of program PWSCF are:
     Max number of different atomic species (ntypx) = 10
     Max number of k-points (npk) =  40000
     Max angular momentum in pseudopotentials (lmaxx) =  4
     file O.pbe-n-kjpaw_psl.0.1.UPF: wavefunction(s)  2P renormalized

     IMPORTANT: XC functional enforced from input :
     Exchange-correlation= PBE
                           (   1   4   3   4   0   0   0)
     Any further DFT definition will be discarded
     Please, verify this is what you really want


     gamma-point specific algorithms are used

     R & G space division:  proc/nbgrp/npool/nimage =      32
     Subspace diagonalization in iterative solution of the eigenvalue problem:
     a serial algorithm will be used


     Parallelization info
     --------------------
     sticks:   dense  smooth     PW     G-vecs:    dense   smooth      PW
     Min        1707    1707    426               301015   301015   37634
     Max        1710    1710    428               301034   301034   37648
     Sum       54693   54693  13673              9632757  9632757 1204469

     Using Slab Decomposition



     bravais-lattice index     =            0
     lattice parameter (alat)  =      75.7119  a.u.
     unit-cell volume          =  434002.3113 (a.u.)^3
     number of atoms/cell      =           66
     number of atomic types    =            2
     number of electrons       =       176.00
     number of Kohn-Sham states=           88
     kinetic-energy cutoff     =      30.0000  Ry
     charge density cutoff     =     120.0000  Ry
     scf convergence threshold =      1.0E-06
     mixing beta               =       0.5000
     number of iterations used =            8  plain     mixing
     Exchange-correlation= PBE
                           (   1   4   3   4   0   0   0)

     celldm(1)=  75.711877  celldm(2)=   0.000000  celldm(3)=   0.000000
     celldm(4)=   0.000000  celldm(5)=   0.000000  celldm(6)=   0.000000

     crystal axes: (cart. coord. in units of alat)
               a(1) = (   1.000000   0.000000   0.000000 )  
               a(2) = (   0.000000   1.000000   0.000000 )  
               a(3) = (   0.000000   0.000000   1.000000 )  

     reciprocal axes: (cart. coord. in units 2 pi/alat)
               b(1) = (  1.000000  0.000000  0.000000 )  
               b(2) = (  0.000000  1.000000  0.000000 )  
               b(3) = (  0.000000  0.000000  1.000000 )  


     PseudoPot. # 1 for H  read from file:
     /share/pfaendtnergroup/rverma7/QE_PP/H.pbe-rrkjus_psl.1.0.0.UPF
     MD5 check sum: f52b6d4d1c606e5624b1dc7b2218f220
     Pseudo is Ultrasoft, Zval =  1.0
     Generated using "atomic" code by A. Dal Corso  v.5.1
     Using radial grid of  929 points,  2 beta functions with: 
                l(1) =   0
                l(2) =   0
     Q(r) pseudized with 0 coefficients 


     PseudoPot. # 2 for O  read from file:
     /share/pfaendtnergroup/rverma7/QE_PP/O.pbe-n-kjpaw_psl.0.1.UPF
     MD5 check sum: 0234752ac141de4415c5fc33072bef88
     Pseudo is Projector augmented-wave + core cor, Zval =  6.0
     Generated using "atomic" code by A. Dal Corso  v.5.0.99 svn rev. 10869
     Shape of augmentation charge: BESSEL
     Using radial grid of 1095 points,  4 beta functions with: 
                l(1) =   0
                l(2) =   0
                l(3) =   1
                l(4) =   1
     Q(r) pseudized with 0 coefficients 


     atomic species   valence    mass     pseudopotential
        H              1.00     1.00800     H ( 1.00)
        O              6.00    15.99900     O ( 1.00)

     No symmetry found



   Cartesian axes

     site n.     atom                  positions (alat units)
         1           H   tau(   1) = (   0.3482092   0.2983652   0.5054786  )
         2           H   tau(   2) = (   0.3844752   0.3109697   0.5175340  )
         3           H   tau(   3) = (   0.3005865   0.2606265   0.3985024  )
         4           H   tau(   4) = (   0.3203794   0.2628229   0.4356670  )
         5           H   tau(   5) = (   0.2816923   0.1864720   0.3957569  )
         6           H   tau(   6) = (   0.3196306   0.1971297   0.4072882  )
         7           H   tau(   7) = (   0.2456259   0.2929490   0.4548609  )
         8           H   tau(   8) = (   0.2809435   0.2788219   0.4483964  )
         9           H   tau(   9) = (   0.3183826   0.3167353   0.3943342  )
        10           H   tau(  10) = (   0.3526769   0.3304630   0.4035193  )
        11           H   tau(  11) = (   0.3899663   0.2359166   0.3821290  )
        12           H   tau(  12) = (   0.4169974   0.2196930   0.4064146  )
        13           H   tau(  13) = (   0.3628104   0.2584051   0.3446400  )
        14           H   tau(  14) = (   0.3873955   0.2439037   0.3147136  )
        15           H   tau(  15) = (   0.2398103   0.1566704   0.3775864  )
        16           H   tau(  16) = (   0.2434045   0.1209035   0.3621116  )
        17           H   tau(  17) = (   0.2833895   0.2367653   0.2544116  )
        18           H   tau(  18) = (   0.2574067   0.2617497   0.2327967  )
        19           H   tau(  19) = (   0.2628728   0.2778984   0.2868838  )
        20           H   tau(  20) = (   0.2415076   0.2584800   0.3112941  )
        21           H   tau(  21) = (   0.3741420   0.3141146   0.4588544  )
        22           H   tau(  22) = (   0.3898914   0.2890054   0.4292774  )
        23           H   tau(  23) = (   0.2880319   0.2921752   0.5029078  )
        24           H   tau(  24) = (   0.2931986   0.3145638   0.5362286  )
        25           H   tau(  25) = (   0.2672158   0.1800824   0.4904530  )
        26           H   tau(  26) = (   0.2726569   0.1405466   0.4872332  )
        27           H   tau(  27) = (   0.2665419   0.2045426   0.3299388  )
        28           H   tau(  28) = (   0.2302259   0.1813054   0.3302633  )
        29           H   tau(  29) = (   0.2357419   0.2290528   0.3604393  )
        30           H   tau(  30) = (   0.2308748   0.2637714   0.3785349  )
        31           H   tau(  31) = (   0.3617372   0.2268064   0.4348933  )
        32           H   tau(  32) = (   0.3589667   0.2481218   0.4703856  )
        33           H   tau(  33) = (   0.3280170   0.3032073   0.3499064  )
        34           H   tau(  34) = (   0.2981904   0.2877324   0.3266941  )
        35           H   tau(  35) = (   0.2762261   0.2418071   0.4844627  )
        36           H   tau(  36) = (   0.3076251   0.2226881   0.4719081  )
        37           H   tau(  37) = (   0.3188069   0.2388119   0.3262199  )
        38           H   tau(  38) = (   0.3152128   0.2028204   0.3469612  )
        39           H   tau(  39) = (   0.3074254   0.2042681   0.2806939  )
        40           H   tau(  40) = (   0.2938475   0.1753650   0.2549357  )
        41           H   tau(  41) = (   0.2368401   0.1796830   0.4433795  )
        42           H   tau(  42) = (   0.2385873   0.2063647   0.4120554  )
        43           H   tau(  43) = (   0.1986272   0.3147385   0.3658056  )
        44           H   tau(  44) = (   0.2341695   0.3049544   0.3461874  )
        45           O   tau(  45) = (   0.3726944   0.2965182   0.5004617  )
        46           O   tau(  46) = (   0.3048297   0.2760764   0.4188444  )
        47           O   tau(  47) = (   0.3039062   0.1960814   0.3858480  )
        48           O   tau(  48) = (   0.2641208   0.2806440   0.4668414  )
        49           O   tau(  49) = (   0.3366030   0.3310371   0.3839511  )
        50           O   tau(  50) = (   0.3936104   0.2287283   0.4059403  )
        51           O   tau(  51) = (   0.3846499   0.2442281   0.3396481  )
        52           O   tau(  52) = (   0.2327967   0.1432173   0.3572445  )
        53           O   tau(  53) = (   0.2693124   0.2586796   0.2545863  )
        54           O   tau(  54) = (   0.2537377   0.2809435   0.3118932  )
        55           O   tau(  55) = (   0.3763884   0.3102958   0.4331212  )
        56           O   tau(  56) = (   0.3061525   0.2986148   0.5196805  )
        57           O   tau(  57) = (   0.2548359   0.1572694   0.4887308  )
        58           O   tau(  58) = (   0.2395358   0.2044428   0.3295894  )
        59           O   tau(  59) = (   0.2395108   0.2394359   0.3837514  )
        60           O   tau(  60) = (   0.3449894   0.2345439   0.4537377  )
        61           O   tau(  61) = (   0.3209285   0.2816673   0.3374516  )
        62           O   tau(  62) = (   0.2844128   0.2170473   0.4826906  )
        63           O   tau(  63) = (   0.3110196   0.2155248   0.3244478  )
        64           O   tau(  64) = (   0.3024335   0.1998752   0.2558093  )
        65           O   tau(  65) = (   0.2453763   0.1826282   0.4205416  )
        66           O   tau(  66) = (   0.2203419   0.3013104   0.3684013  )

     number of k points=     1
                       cart. coord. in units 2pi/alat
        k(    1) = (   0.0000000   0.0000000   0.0000000), wk =   2.0000000

     Dense  grid:  4816379 G-vectors     FFT dimensions: ( 270, 270, 270)

     Estimated max dynamical RAM per process >     612.29 MB

     Estimated total dynamical RAM >      19.13 GB

     Check: negative core charge=   -0.000006

     Initial potential from superposition of free atoms

     starting charge     175.9995, renormalised to     176.0000

     negative rho (up, down):  3.724E-01 0.000E+00
     Starting wfcs are  132 randomized atomic wfcs
     Checking if some PAW data can be deallocated... 

     total cpu time spent up to now is        8.1 secs

     Self-consistent Calculation

     iteration #  1     ecut=    30.00 Ry     beta= 0.50
     Davidson diagonalization with overlap
     ethr =  1.00E-02,  avg # of iterations =  2.0

     negative rho (up, down):  4.363E-01 0.000E+00

     total cpu time spent up to now is       16.1 secs

     total energy              =    -965.72404674 Ry
     estimated scf accuracy    <       6.83161110 Ry

     iteration #  2     ecut=    30.00 Ry     beta= 0.50
     Davidson diagonalization with overlap
     ethr =  3.88E-03,  avg # of iterations =  2.0

     negative rho (up, down):  4.553E-01 0.000E+00

     total cpu time spent up to now is       24.4 secs

     total energy              =    -967.65659209 Ry
     estimated scf accuracy    <       1.03827456 Ry

     iteration #  3     ecut=    30.00 Ry     beta= 0.50
     Davidson diagonalization with overlap
     ethr =  5.90E-04,  avg # of iterations =  2.0

     negative rho (up, down):  4.991E-01 0.000E+00

     total cpu time spent up to now is       31.8 secs

     total energy              =    -967.71179200 Ry
     estimated scf accuracy    <       0.13240593 Ry

     iteration #  4     ecut=    30.00 Ry     beta= 0.50
     Davidson diagonalization with overlap
     ethr =  7.52E-05,  avg # of iterations =  3.0

     negative rho (up, down):  4.988E-01 0.000E+00

     total cpu time spent up to now is       40.3 secs

     total energy              =    -967.73627839 Ry
     estimated scf accuracy    <       0.04284435 Ry

     iteration #  5     ecut=    30.00 Ry     beta= 0.50
     Davidson diagonalization with overlap
     ethr =  2.43E-05,  avg # of iterations =  2.0

     negative rho (up, down):  4.978E-01 0.000E+00

     total cpu time spent up to now is       47.1 secs

     total energy              =    -967.73689604 Ry
     estimated scf accuracy    <       0.00808785 Ry

     iteration #  6     ecut=    30.00 Ry     beta= 0.50
     Davidson diagonalization with overlap
     ethr =  4.60E-06,  avg # of iterations =  2.0

     negative rho (up, down):  4.970E-01 0.000E+00

     total cpu time spent up to now is       54.2 secs

     total energy              =    -967.73699683 Ry
     estimated scf accuracy    <       0.00173477 Ry

     iteration #  7     ecut=    30.00 Ry     beta= 0.50
     Davidson diagonalization with overlap
     ethr =  9.86E-07,  avg # of iterations =  2.0

     negative rho (up, down):  4.967E-01 0.000E+00

     total cpu time spent up to now is       62.1 secs

     total energy              =    -967.73730244 Ry
     estimated scf accuracy    <       0.00007651 Ry

     iteration #  8     ecut=    30.00 Ry     beta= 0.50
     Davidson diagonalization with overlap
     ethr =  4.35E-08,  avg # of iterations =  3.0

     negative rho (up, down):  4.967E-01 0.000E+00

     total cpu time spent up to now is       70.8 secs

     total energy              =    -967.73733515 Ry
     estimated scf accuracy    <       0.00002002 Ry

     iteration #  9     ecut=    30.00 Ry     beta= 0.50
     Davidson diagonalization with overlap
     ethr =  1.14E-08,  avg # of iterations =  1.0

     negative rho (up, down):  4.968E-01 0.000E+00

     total cpu time spent up to now is       78.8 secs

     total energy              =    -967.73733216 Ry
     estimated scf accuracy    <       0.00001013 Ry

     iteration # 10     ecut=    30.00 Ry     beta= 0.50
     Davidson diagonalization with overlap
     ethr =  5.75E-09,  avg # of iterations =  2.0

     negative rho (up, down):  4.968E-01 0.000E+00

     total cpu time spent up to now is       87.6 secs

     End of self-consistent calculation

          k = 0.0000 0.0000 0.0000 (602235 PWs)   bands (ev):

   -26.1331 -25.8417 -25.6949 -25.5019 -25.3957 -25.1944 -25.0510 -24.9941
   -24.9607 -24.8695 -24.8421 -24.7367 -24.6555 -24.5878 -24.4768 -24.3455
   -24.2651 -24.2126 -24.0915 -23.9695 -23.6975 -23.1926 -13.9484 -13.8414
   -13.5200 -13.4699 -13.4277 -13.2752 -12.9778 -12.9367 -12.8824 -12.8219
   -12.7568 -12.6441 -12.6104 -12.4799 -12.3696 -12.1369 -12.0803 -11.9577
   -11.8413 -11.7542 -11.6056 -11.2799 -11.2284 -10.8073 -10.6731 -10.5903
   -10.4149 -10.0617 -10.0124  -9.8600  -9.6248  -9.5871  -9.5125  -9.3649
    -9.2947  -9.1127  -8.9443  -8.8919  -8.6559  -8.5429  -8.4221  -8.3723
    -8.2061  -8.0288  -7.8705  -7.8068  -7.7260  -7.6343  -7.5258  -7.5225
    -7.4118  -7.3857  -7.3126  -7.2983  -7.1980  -7.0714  -6.9967  -6.9630
    -6.9184  -6.9054  -6.7620  -6.6440  -6.3645  -6.3378  -6.0313  -5.8816

     highest occupied level (ev):    -5.8816

!    total energy              =    -967.73733312 Ry
     estimated scf accuracy    <       0.00000061 Ry

     The total energy is the sum of the following terms:
     one-electron contribution =   -5909.77172046 Ry
     hartree contribution      =    2990.23880488 Ry
     xc contribution           =    -193.29312311 Ry
     ewald contribution        =    2354.41937770 Ry
     one-center paw contrib.   =    -209.33067213 Ry

     convergence has been achieved in  10 iterations

     negative rho (up, down):  4.968E-01 0.000E+00

     Forces acting on atoms (cartesian axes, Ry/au):

     atom    1 type  1   force =     0.00081657    0.00773821    0.01832137
     atom    2 type  1   force =    -0.03155576   -0.03522620   -0.03524125
     atom    3 type  1   force =     0.00199611    0.03470822    0.06737811
     atom    4 type  1   force =    -0.02004908    0.02093332   -0.07207600
     atom    5 type  1   force =     0.05334719    0.02960529   -0.00378640
     atom    6 type  1   force =    -0.07474017   -0.01193635   -0.09777627
     atom    7 type  1   force =     0.03056220   -0.02795494    0.03477715
     atom    8 type  1   force =     0.00092182   -0.00151767   -0.03223583
     atom    9 type  1   force =     0.03037778    0.02302286   -0.01057449
     atom   10 type  1   force =    -0.00373046   -0.01106620   -0.03133158
     atom   11 type  1   force =     0.01176751   -0.01455490    0.00566740
     atom   12 type  1   force =    -0.04470626    0.01399289   -0.00130733
     atom   13 type  1   force =     0.07495930   -0.04420493   -0.04604191
     atom   14 type  1   force =    -0.01190119    0.00400693    0.04876254
     atom   15 type  1   force =    -0.02386237   -0.01976949   -0.01857954
     atom   16 type  1   force =    -0.02360590    0.04137943   -0.01550164
     atom   17 type  1   force =    -0.04207885    0.02863317   -0.02024174
     atom   18 type  1   force =     0.02798721   -0.01471475    0.03795676
     atom   19 type  1   force =    -0.02516084    0.01502610    0.05217477
     atom   20 type  1   force =     0.02526642    0.04791720    0.02460278
     atom   21 type  1   force =     0.01949982   -0.03496986   -0.06597212
     atom   22 type  1   force =    -0.03661424    0.05739803    0.01878346
     atom   23 type  1   force =     0.01836426    0.01602145    0.01211799
     atom   24 type  1   force =     0.05954983   -0.06712311   -0.07080303
     atom   25 type  1   force =    -0.02140039   -0.04997655   -0.00791537
     atom   26 type  1   force =    -0.00415263    0.00703030   -0.00051839
     atom   27 type  1   force =    -0.10117270   -0.00850016   -0.01108950
     atom   28 type  1   force =     0.03056028    0.01278720    0.00603490
     atom   29 type  1   force =     0.00929836   -0.00840502    0.04649877
     atom   30 type  1   force =     0.01545010   -0.06552758    0.03561380
     atom   31 type  1   force =    -0.02500978    0.03151175    0.04960889
     atom   32 type  1   force =    -0.02683339   -0.03675311   -0.04253577
     atom   33 type  1   force =     0.00000855   -0.03849975   -0.01450922
     atom   34 type  1   force =     0.04186958   -0.02884246    0.02835923
     atom   35 type  1   force =    -0.00766260   -0.08472740   -0.00530783
     atom   36 type  1   force =    -0.06410915   -0.04483832    0.03357899
     atom   37 type  1   force =    -0.00530928    0.00343696    0.02181092
     atom   38 type  1   force =    -0.01073158    0.04678017   -0.04379697
     atom   39 type  1   force =    -0.00367533   -0.02268379   -0.02640241
     atom   40 type  1   force =     0.02537854    0.09334017    0.00736401
     atom   41 type  1   force =     0.01527193   -0.00929433    0.00395647
     atom   42 type  1   force =     0.00954216   -0.04027020    0.01702193
     atom   43 type  1   force =     0.06747307   -0.04329539    0.00236869
     atom   44 type  1   force =    -0.05142171   -0.02009805    0.06028213
     atom   45 type  2   force =     0.02022593    0.03159290    0.02329631
     atom   46 type  2   force =     0.03418048   -0.05926065   -0.02365266
     atom   47 type  2   force =     0.03335391   -0.02563020    0.12649117
     atom   48 type  2   force =    -0.05446545    0.04210722    0.01447939
     atom   49 type  2   force =    -0.03745704   -0.01884180    0.02791989
     atom   50 type  2   force =     0.03271023   -0.00475491   -0.00414853
     atom   51 type  2   force =    -0.07087005    0.05235150   -0.00122039
     atom   52 type  2   force =     0.03620409   -0.02939217    0.04598821
     atom   53 type  2   force =     0.01346002   -0.02015702   -0.04357896
     atom   54 type  2   force =    -0.00071584   -0.04984353   -0.06201037
     atom   55 type  2   force =     0.03191652   -0.02541675    0.05309731
     atom   56 type  2   force =    -0.07741557    0.05557909    0.04887917
     atom   57 type  2   force =     0.01841569    0.04089417    0.00585464
     atom   58 type  2   force =     0.08622321    0.00773722   -0.02821459
     atom   59 type  2   force =    -0.03296629    0.06384387   -0.04355598
     atom   60 type  2   force =     0.07371215    0.01395485    0.00181671
     atom   61 type  2   force =    -0.03356490    0.06742569   -0.00353315
     atom   62 type  2   force =     0.06503719    0.11405377   -0.01831482
     atom   63 type  2   force =    -0.00563943   -0.06232144    0.00422612
     atom   64 type  2   force =    -0.01027998   -0.06653750    0.03919498
     atom   65 type  2   force =    -0.01729191    0.04924815   -0.05256719
     atom   66 type  2   force =    -0.01555794    0.07284840   -0.06994371
     The non-local contrib.  to forces
     atom    1 type  1   force =     0.09813282   -0.00529885   -0.01804485
     atom    2 type  1   force =    -0.04766040   -0.05437105   -0.06424109
     atom    3 type  1   force =     0.01656383    0.05121786    0.07216390
     atom    4 type  1   force =    -0.04551074    0.03628629   -0.05039681
     atom    5 type  1   force =     0.07170905    0.03018348   -0.03061500
     atom    6 type  1   force =    -0.04766208   -0.00389923   -0.06314520
     atom    7 type  1   force =     0.07196161   -0.04695984    0.04559818
     atom    8 type  1   force =    -0.06291316    0.00718934    0.06855862
     atom    9 type  1   force =     0.06892085    0.05378447   -0.03839852
     atom   10 type  1   force =    -0.06110270    0.00116175   -0.07276488
     atom   11 type  1   force =     0.01592259   -0.02867194    0.09320806
     atom   12 type  1   force =    -0.09306947    0.03637467   -0.00399314
     atom   13 type  1   force =     0.06634241   -0.04327617   -0.01773021
     atom   14 type  1   force =    -0.01317961    0.00284157    0.09872077
     atom   15 type  1   force =    -0.02409604   -0.05254257   -0.07665514
     atom   16 type  1   force =    -0.03995147    0.08740099   -0.01721712
     atom   17 type  1   force =    -0.04545894    0.06895922   -0.00156564
     atom   18 type  1   force =     0.04877715   -0.01475708    0.08642855
     atom   19 type  1   force =    -0.02443396    0.00673081    0.06568444
     atom   20 type  1   force =     0.04483838    0.08174024    0.00200429
     atom   21 type  1   force =     0.00871948   -0.01476850   -0.08254341
     atom   22 type  1   force =    -0.04937498    0.07764258    0.01761636
     atom   23 type  1   force =     0.06438338    0.02441134    0.06163660
     atom   24 type  1   force =     0.03867461   -0.04929759   -0.05271745
     atom   25 type  1   force =    -0.03743842   -0.07574496   -0.00591638
     atom   26 type  1   force =    -0.07590932    0.07550504    0.00637336
     atom   27 type  1   force =    -0.07323349   -0.00399820   -0.00058222
     atom   28 type  1   force =     0.04080495    0.09399202   -0.00270431
     atom   29 type  1   force =     0.01234770    0.03484721    0.07591866
     atom   30 type  1   force =     0.02532240   -0.07268613    0.01452472
     atom   31 type  1   force =    -0.04981003    0.02472545    0.05841484
     atom   32 type  1   force =    -0.04889841   -0.04979010   -0.06214651
     atom   33 type  1   force =    -0.02549146   -0.07184764   -0.04229355
     atom   34 type  1   force =     0.07760000   -0.01866560    0.03664786
     atom   35 type  1   force =     0.02804178   -0.07878605   -0.00572144
     atom   36 type  1   force =    -0.07326431   -0.01627691    0.03388818
     atom   37 type  1   force =    -0.03262921   -0.10112748   -0.00513910
     atom   38 type  1   force =    -0.01193293    0.04185487   -0.06916781
     atom   39 type  1   force =    -0.01860481   -0.01748266   -0.08590462
     atom   40 type  1   force =     0.02816941    0.08193138    0.00556309
     atom   41 type  1   force =     0.03625879    0.01572670   -0.10123999
     atom   42 type  1   force =     0.02055991   -0.07636026    0.02950000
     atom   43 type  1   force =     0.07762944   -0.04708635    0.00660023
     atom   44 type  1   force =    -0.04515140   -0.00909310    0.06778491
     atom   45 type  2   force =    -0.78065873    1.26414637    1.46713334
     atom   46 type  2   force =     0.48582073   -1.80670091   -0.19653241
     atom   47 type  2   force =    -0.16425695   -0.59908612    1.85307810
     atom   48 type  2   force =    -0.22184724    0.79212521   -1.63238935
     atom   49 type  2   force =    -0.21555313   -1.09687879    1.77382563
     atom   50 type  2   force =     1.33366291   -0.20186462   -1.37986161
     atom   51 type  2   force =    -1.19651864    0.88542081   -1.38554947
     atom   52 type  2   force =     1.33361056   -0.68237556    1.64742285
     atom   53 type  2   force =    -0.05348944   -0.94868139   -1.47850792
     atom   54 type  2   force =    -0.24345739   -1.47271005   -1.17835858
     atom   55 type  2   force =     0.80591412   -1.23388927    1.34571211
     atom   56 type  2   force =    -1.90308032    0.75998026   -0.02046478
     atom   57 type  2   force =     2.18175937    0.14392333   -0.07614721
     atom   58 type  2   force =     0.95140654   -1.52288348    0.16431190
     atom   59 type  2   force =    -0.77637450    0.71809332   -1.47095905
     atom   60 type  2   force =     1.77435163    0.55841147   -0.03303173
     atom   61 type  2   force =    -0.85917767    1.53289567    0.02424720
     atom   62 type  2   force =     0.89683313    1.73742015   -0.44725107
     atom   63 type  2   force =     0.69929779    0.74079786    1.26075313
     atom   64 type  2   force =    -0.48872249   -1.29408084    1.56601128
     atom   65 type  2   force =    -0.93246764    1.15051654    0.91252075
     atom   66 type  2   force =    -0.71710119    1.10273799   -1.58281192
     The ionic contribution  to forces
     atom    1 type  1   force =    -1.64023253    1.15470734    2.34327599
     atom    2 type  1   force =     2.93847162    2.69677574    3.78189151
     atom    3 type  1   force =    -0.52371785   -1.03171990   -2.16193483
     atom    4 type  1   force =     1.70381622   -0.38418985    2.08296842
     atom    5 type  1   force =    -1.63054938   -3.01672661    0.99664668
     atom    6 type  1   force =     2.69376475   -1.96551903    2.46123320
     atom    7 type  1   force =    -4.32163278    3.03794710   -0.26313812
     atom    8 type  1   force =     0.37096485    1.20923195   -0.46895362
     atom    9 type  1   force =    -2.15355022    1.08368914    0.93387776
     atom   10 type  1   force =     2.70136246    2.72923872    1.70535205
     atom   11 type  1   force =     1.88597377    0.19800059   -2.61298766
     atom   12 type  1   force =     5.38529294   -2.09891643    0.35490634
     atom   13 type  1   force =     0.12489140    1.71054679   -0.58627417
     atom   14 type  1   force =     2.49608349   -0.16852783   -4.77940817
     atom   15 type  1   force =    -0.47256145   -0.86187712    2.08556054
     atom   16 type  1   force =     0.73320563   -5.19939391    0.17471927
     atom   17 type  1   force =     1.13047358   -1.67913750   -2.45571194
     atom   18 type  1   force =    -2.25986463    0.97069678   -5.02813977
     atom   19 type  1   force =    -0.00914218    1.66661205   -3.58276902
     atom   20 type  1   force =    -3.29617404   -1.84060629   -1.61011140
     atom   21 type  1   force =     1.30869841    2.40270809    3.12228193
     atom   22 type  1   force =     4.00373840   -1.48090760   -0.18964429
     atom   23 type  1   force =    -2.50126763    0.55167051    0.55940051
     atom   24 type  1   force =    -1.82454702    2.91826269    3.81995519
     atom   25 type  1   force =     0.47793661    0.50524171    2.30644928
     atom   26 type  1   force =     2.34086530   -4.32088230    1.09165834
     atom   27 type  1   force =     1.38459511   -1.42955205   -1.40056435
     atom   28 type  1   force =    -3.01529639   -3.95261112   -1.62157441
     atom   29 type  1   force =    -2.63042807   -0.87826472   -2.28282095
     atom   30 type  1   force =    -2.82969087    2.55823267    0.03009097
     atom   31 type  1   force =     3.02029759   -2.14298289   -0.62196921
     atom   32 type  1   force =     3.20454228    0.75112873    3.65665893
     atom   33 type  1   force =     1.54551609    3.97527048   -0.34584760
     atom   34 type  1   force =    -1.84277922    2.52204909   -2.49918313
     atom   35 type  1   force =    -1.85911285    1.78853429    2.64375619
     atom   36 type  1   force =     2.33469426   -0.86848064    1.04334536
     atom   37 type  1   force =     1.94319421    2.24145601   -1.48951110
     atom   38 type  1   force =     1.79083924   -3.01333065    0.76259984
     atom   39 type  1   force =     1.37938425   -0.87079525    0.35837600
     atom   40 type  1   force =    -0.86668167   -4.35398506   -1.99773362
     atom   41 type  1   force =    -2.99045185   -1.72445130    3.81269269
     atom   42 type  1   force =    -2.79202876    1.33698860    0.35501836
     atom   43 type  1   force =    -4.59151496    3.13154544   -0.36517252
     atom   44 type  1   force =    -0.26405140    2.71024551   -2.59049849
     atom   45 type  2   force =    10.71881726    2.49117536    8.89115580
     atom   46 type  2   force =    -1.39993371    9.23017569    1.63420471
     atom   47 type  2   force =     5.64517727  -10.77598816   -1.74728157
     atom   48 type  2   force =   -10.82032079    6.59768985   11.61157538
     atom   49 type  2   force =     4.07084416   17.56414532   -6.12936538
     atom   50 type  2   force =    12.52004694   -5.31187261    3.40334985
     atom   51 type  2   force =    15.26152153   -2.06214152   -6.07270713
     atom   52 type  2   force =    -9.06863490  -13.08192395   -5.74875106
     atom   53 type  2   force =    -2.76320992    5.26076494  -12.93027898
     atom   54 type  2   force =    -6.91239480   11.35930753   -7.11271147
     atom   55 type  2   force =    10.50444459   11.35587632    0.67079415
     atom   56 type  2   force =     1.19545050    5.41289756   13.78501572
     atom   57 type  2   force =    -7.98141822  -10.75311311    9.75239667
     atom   58 type  2   force =   -11.93150637   -4.22056794   -9.76772665
     atom   59 type  2   force =   -10.76501672    0.42600493    4.59319592
     atom   60 type  2   force =     6.44608099   -7.13057216    8.83145476
     atom   61 type  2   force =     6.28789160    6.55258170   -8.54679784
     atom   62 type  2   force =    -3.37048448   -7.80120202   13.53093724
     atom   63 type  2   force =     4.76999062   -8.33381889  -10.71075737
     atom   64 type  2   force =     3.76822547   -5.61572372  -15.49113124
     atom   65 type  2   force =    -7.58121831  -11.59327257    3.85116541
     atom   66 type  2   force =   -11.17767942    9.86165547    2.17349609
     The local contribution  to forces
     atom    1 type  1   force =     1.54293915   -1.14167541   -2.30690705
     atom    2 type  1   force =    -2.92235499   -2.67763506   -3.75287906
     atom    3 type  1   force =     0.50916502    1.01518135    2.15713755
     atom    4 type  1   force =    -1.67833913    0.36881744   -2.10464025
     atom    5 type  1   force =     1.61220476    3.01612682   -0.96981800
     atom    6 type  1   force =    -2.72082295    1.95746554   -2.49585072
     atom    7 type  1   force =     4.28023186   -3.01894716    0.25230331
     atom    8 type  1   force =    -0.30712006   -1.21795516    0.36814782
     atom    9 type  1   force =     2.11499113   -1.11450112   -0.90601992
     atom   10 type  1   force =    -2.64395900   -2.74149835   -1.66386008
     atom   11 type  1   force =    -1.89011006   -0.18389983    2.52543705
     atom   12 type  1   force =    -5.33689453    2.07651064   -0.35222347
     atom   13 type  1   force =    -0.11627167   -1.71148870    0.55796661
     atom   14 type  1   force =    -2.49479429    0.16967762    4.72942996
     atom   15 type  1   force =     0.47281979    0.89463549   -2.02746707
     atom   16 type  1   force =    -0.71683130    5.15332658   -0.17299065
     atom   17 type  1   force =    -1.12707817    1.63877142    2.43703033
     atom   18 type  1   force =     2.23907125   -0.97067370    4.97964155
     atom   19 type  1   force =     0.00841950   -1.65833174    3.56927665
     atom   20 type  1   force =     3.27661117    1.80677006    1.63271354
     atom   21 type  1   force =    -1.29790807   -2.42292387   -3.10569369
     atom   22 type  1   force =    -3.99095980    1.46063473    0.19081914
     atom   23 type  1   force =     2.45521968   -0.56007691   -0.60893419
     atom   24 type  1   force =     1.84540344   -2.93607299   -3.83800748
     atom   25 type  1   force =    -0.46187862   -0.47948858   -2.30844597
     atom   26 type  1   force =    -2.26908183    4.25238186   -1.09854653
     atom   27 type  1   force =    -1.41248137    1.42502654    1.39006870
     atom   28 type  1   force =     3.00505586    3.87134004    1.63031678
     atom   29 type  1   force =     2.62737958    0.83500596    2.25337531
     atom   30 type  1   force =     2.81980766   -2.55104777   -0.00902455
     atom   31 type  1   force =    -2.99546577    2.14974857    0.61315083
     atom   32 type  1   force =    -3.18243976   -0.73808651   -3.63702628
     atom   33 type  1   force =    -1.52000975   -3.94191495    0.37364711
     atom   34 type  1   force =     1.80702106   -2.53222471    2.49088886
     atom   35 type  1   force =     1.82342136   -1.79448124   -2.64334248
     atom   36 type  1   force =    -2.32552872    0.83990952   -1.04365352
     atom   37 type  1   force =    -1.91584772   -2.13688336    1.51647679
     atom   38 type  1   force =    -1.78962052    3.01822271   -0.73719046
     atom   39 type  1   force =    -1.36444790    0.86556793   -0.29886170
     atom   40 type  1   force =     0.86389190    4.36535246    1.99954520
     atom   41 type  1   force =     2.96945039    1.69941778   -3.70743942
     atom   42 type  1   force =     2.78100090   -1.30088214   -0.36748664
     atom   43 type  1   force =     4.58136073   -3.12776757    0.36094068
     atom   44 type  1   force =     0.25779257   -2.72126903    2.58299352
     atom   45 type  2   force =    -9.92539019   -3.71080902  -10.31963554
     atom   46 type  2   force =     0.95265247   -7.50146753   -1.46397384
     atom   47 type  2   force =    -5.44809115   11.34270243    0.04037653
     atom   48 type  2   force =    10.98338252   -7.33898881   -9.98026419
     atom   49 type  2   force =    -3.89491093  -16.49742847    4.40137439
     atom   50 type  2   force =   -13.80739171    5.50702753   -2.04043532
     atom   51 type  2   force =   -14.14804689    1.23826930    7.44231035
     atom   52 type  2   force =     7.78545340   13.72739495    4.16431651
     atom   53 type  2   force =     2.82933340   -4.34112385   14.34906347
     atom   54 type  2   force =     7.15247138   -9.95036885    8.21727593
     atom   55 type  2   force =   -11.26972672  -10.15967193   -1.94880914
     atom   56 type  2   force =     0.61064976   -6.10859597  -13.71517029
     atom   57 type  2   force =     5.84046519   10.65165596   -9.67022900
     atom   58 type  2   force =    11.07630829    5.73509239    9.57562548
     atom   59 type  2   force =    11.50132749   -1.07207333   -3.17934401
     atom   60 type  2   force =    -8.12873354    6.59139308   -8.79700768
     atom   61 type  2   force =    -5.47040100   -8.00272467    8.51873458
     atom   62 type  2   force =     2.54789571    6.19571590  -13.10725684
     atom   63 type  2   force =    -5.46810078    7.53793918    9.46684323
     atom   64 type  2   force =    -3.29526266    6.82851890   13.97975988
     atom   65 type  2   force =     8.48711163   10.50371652   -4.80699775
     atom   66 type  2   force =    11.87107355  -10.88017819   -0.67733755
     The core correction contribution to forces
     atom    1 type  1   force =     0.00000000    0.00000000    0.00000000
     atom    2 type  1   force =     0.00000000    0.00000000    0.00000000
     atom    3 type  1   force =     0.00000000    0.00000000    0.00000000
     atom    4 type  1   force =     0.00000000    0.00000000    0.00000000
     atom    5 type  1   force =     0.00000000    0.00000000    0.00000000
     atom    6 type  1   force =     0.00000000    0.00000000    0.00000000
     atom    7 type  1   force =     0.00000000    0.00000000    0.00000000
     atom    8 type  1   force =     0.00000000    0.00000000    0.00000000
     atom    9 type  1   force =     0.00000000    0.00000000    0.00000000
     atom   10 type  1   force =     0.00000000    0.00000000    0.00000000
     atom   11 type  1   force =     0.00000000    0.00000000    0.00000000
     atom   12 type  1   force =     0.00000000    0.00000000    0.00000000
     atom   13 type  1   force =     0.00000000    0.00000000    0.00000000
     atom   14 type  1   force =     0.00000000    0.00000000    0.00000000
     atom   15 type  1   force =     0.00000000    0.00000000    0.00000000
     atom   16 type  1   force =     0.00000000    0.00000000    0.00000000
     atom   17 type  1   force =     0.00000000    0.00000000    0.00000000
     atom   18 type  1   force =     0.00000000    0.00000000    0.00000000
     atom   19 type  1   force =     0.00000000    0.00000000    0.00000000
     atom   20 type  1   force =     0.00000000    0.00000000    0.00000000
     atom   21 type  1   force =     0.00000000    0.00000000    0.00000000
     atom   22 type  1   force =     0.00000000    0.00000000    0.00000000
     atom   23 type  1   force =     0.00000000    0.00000000    0.00000000
     atom   24 type  1   force =     0.00000000    0.00000000    0.00000000
     atom   25 type  1   force =     0.00000000    0.00000000    0.00000000
     atom   26 type  1   force =     0.00000000    0.00000000    0.00000000
     atom   27 type  1   force =     0.00000000    0.00000000    0.00000000
     atom   28 type  1   force =     0.00000000    0.00000000    0.00000000
     atom   29 type  1   force =     0.00000000    0.00000000    0.00000000
     atom   30 type  1   force =     0.00000000    0.00000000    0.00000000
     atom   31 type  1   force =     0.00000000    0.00000000    0.00000000
     atom   32 type  1   force =     0.00000000    0.00000000    0.00000000
     atom   33 type  1   force =     0.00000000    0.00000000    0.00000000
     atom   34 type  1   force =     0.00000000    0.00000000    0.00000000
     atom   35 type  1   force =     0.00000000    0.00000000    0.00000000
     atom   36 type  1   force =     0.00000000    0.00000000    0.00000000
     atom   37 type  1   force =     0.00000000    0.00000000    0.00000000
     atom   38 type  1   force =     0.00000000    0.00000000    0.00000000
     atom   39 type  1   force =     0.00000000    0.00000000    0.00000000
     atom   40 type  1   force =     0.00000000    0.00000000    0.00000000
     atom   41 type  1   force =     0.00000000    0.00000000    0.00000000
     atom   42 type  1   force =     0.00000000    0.00000000    0.00000000
     atom   43 type  1   force =     0.00000000    0.00000000    0.00000000
     atom   44 type  1   force =     0.00000000    0.00000000    0.00000000
     atom   45 type  2   force =     0.00740757   -0.01281520   -0.01525963
     atom   46 type  2   force =    -0.00429958    0.01860331    0.00263287
     atom   47 type  2   force =     0.00058842    0.00672155   -0.01962000
     atom   48 type  2   force =     0.00425119   -0.00864778    0.01531742
     atom   49 type  2   force =     0.00208645    0.01107468   -0.01758298
     atom   50 type  2   force =    -0.01343215    0.00190065    0.01266437
     atom   51 type  2   force =     0.01212531   -0.00918224    0.01457644
     atom   52 type  2   force =    -0.01407768    0.00736151   -0.01688608
     atom   53 type  2   force =     0.00076224    0.00879206    0.01595191
     atom   54 type  2   force =     0.00263430    0.01376615    0.01171735
     atom   55 type  2   force =    -0.00869902    0.01220024   -0.01452737
     atom   56 type  2   force =     0.01938051   -0.00859727   -0.00042781
     atom   57 type  2   force =    -0.02220525   -0.00163643   -0.00017196
     atom   58 type  2   force =    -0.00981089    0.01598730   -0.00034747
     atom   59 type  2   force =     0.00698576   -0.00807889    0.01326207
     atom   60 type  2   force =    -0.01785829   -0.00519747    0.00041832
     atom   61 type  2   force =     0.00798276   -0.01513621    0.00031719
     atom   62 type  2   force =    -0.00909895   -0.01776159    0.00518515
     atom   63 type  2   force =    -0.00677236   -0.00722533   -0.01243958
     atom   64 type  2   force =     0.00542599    0.01462189   -0.01532061
     atom   65 type  2   force =     0.00915625   -0.01158353   -0.00909153
     atom   66 type  2   force =     0.00811973   -0.01139417    0.01663902
     The Hubbard contrib.    to forces
     atom    1 type  1   force =     0.00000000    0.00000000    0.00000000
     atom    2 type  1   force =     0.00000000    0.00000000    0.00000000
     atom    3 type  1   force =     0.00000000    0.00000000    0.00000000
     atom    4 type  1   force =     0.00000000    0.00000000    0.00000000
     atom    5 type  1   force =     0.00000000    0.00000000    0.00000000
     atom    6 type  1   force =     0.00000000    0.00000000    0.00000000
     atom    7 type  1   force =     0.00000000    0.00000000    0.00000000
     atom    8 type  1   force =     0.00000000    0.00000000    0.00000000
     atom    9 type  1   force =     0.00000000    0.00000000    0.00000000
     atom   10 type  1   force =     0.00000000    0.00000000    0.00000000
     atom   11 type  1   force =     0.00000000    0.00000000    0.00000000
     atom   12 type  1   force =     0.00000000    0.00000000    0.00000000
     atom   13 type  1   force =     0.00000000    0.00000000    0.00000000
     atom   14 type  1   force =     0.00000000    0.00000000    0.00000000
     atom   15 type  1   force =     0.00000000    0.00000000    0.00000000
     atom   16 type  1   force =     0.00000000    0.00000000    0.00000000
     atom   17 type  1   force =     0.00000000    0.00000000    0.00000000
     atom   18 type  1   force =     0.00000000    0.00000000    0.00000000
     atom   19 type  1   force =     0.00000000    0.00000000    0.00000000
     atom   20 type  1   force =     0.00000000    0.00000000    0.00000000
     atom   21 type  1   force =     0.00000000    0.00000000    0.00000000
     atom   22 type  1   force =     0.00000000    0.00000000    0.00000000
     atom   23 type  1   force =     0.00000000    0.00000000    0.00000000
     atom   24 type  1   force =     0.00000000    0.00000000    0.00000000
     atom   25 type  1   force =     0.00000000    0.00000000    0.00000000
     atom   26 type  1   force =     0.00000000    0.00000000    0.00000000
     atom   27 type  1   force =     0.00000000    0.00000000    0.00000000
     atom   28 type  1   force =     0.00000000    0.00000000    0.00000000
     atom   29 type  1   force =     0.00000000    0.00000000    0.00000000
     atom   30 type  1   force =     0.00000000    0.00000000    0.00000000
     atom   31 type  1   force =     0.00000000    0.00000000    0.00000000
     atom   32 type  1   force =     0.00000000    0.00000000    0.00000000
     atom   33 type  1   force =     0.00000000    0.00000000    0.00000000
     atom   34 type  1   force =     0.00000000    0.00000000    0.00000000
     atom   35 type  1   force =     0.00000000    0.00000000    0.00000000
     atom   36 type  1   force =     0.00000000    0.00000000    0.00000000
     atom   37 type  1   force =     0.00000000    0.00000000    0.00000000
     atom   38 type  1   force =     0.00000000    0.00000000    0.00000000
     atom   39 type  1   force =     0.00000000    0.00000000    0.00000000
     atom   40 type  1   force =     0.00000000    0.00000000    0.00000000
     atom   41 type  1   force =     0.00000000    0.00000000    0.00000000
     atom   42 type  1   force =     0.00000000    0.00000000    0.00000000
     atom   43 type  1   force =     0.00000000    0.00000000    0.00000000
     atom   44 type  1   force =     0.00000000    0.00000000    0.00000000
     atom   45 type  2   force =     0.00000000    0.00000000    0.00000000
     atom   46 type  2   force =     0.00000000    0.00000000    0.00000000
     atom   47 type  2   force =     0.00000000    0.00000000    0.00000000
     atom   48 type  2   force =     0.00000000    0.00000000    0.00000000
     atom   49 type  2   force =     0.00000000    0.00000000    0.00000000
     atom   50 type  2   force =     0.00000000    0.00000000    0.00000000
     atom   51 type  2   force =     0.00000000    0.00000000    0.00000000
     atom   52 type  2   force =     0.00000000    0.00000000    0.00000000
     atom   53 type  2   force =     0.00000000    0.00000000    0.00000000
     atom   54 type  2   force =     0.00000000    0.00000000    0.00000000
     atom   55 type  2   force =     0.00000000    0.00000000    0.00000000
     atom   56 type  2   force =     0.00000000    0.00000000    0.00000000
     atom   57 type  2   force =     0.00000000    0.00000000    0.00000000
     atom   58 type  2   force =     0.00000000    0.00000000    0.00000000
     atom   59 type  2   force =     0.00000000    0.00000000    0.00000000
     atom   60 type  2   force =     0.00000000    0.00000000    0.00000000
     atom   61 type  2   force =     0.00000000    0.00000000    0.00000000
     atom   62 type  2   force =     0.00000000    0.00000000    0.00000000
     atom   63 type  2   force =     0.00000000    0.00000000    0.00000000
     atom   64 type  2   force =     0.00000000    0.00000000    0.00000000
     atom   65 type  2   force =     0.00000000    0.00000000    0.00000000
     atom   66 type  2   force =     0.00000000    0.00000000    0.00000000
     The SCF correction term to forces
     atom    1 type  1   force =    -0.00001130   -0.00001170    0.00000146
     atom    2 type  1   force =    -0.00000041   -0.00001265   -0.00000843
     atom    3 type  1   force =    -0.00000330    0.00001209    0.00001566
     atom    4 type  1   force =    -0.00000385    0.00000262   -0.00000318
     atom    5 type  1   force =    -0.00000566    0.00000479    0.00000410
     atom    6 type  1   force =    -0.00000831   -0.00000045   -0.00000937
     atom    7 type  1   force =     0.00001309   -0.00001186    0.00001796
     atom    8 type  1   force =     0.00000177   -0.00000062    0.00001553
     atom    9 type  1   force =     0.00002760    0.00003356   -0.00002962
     atom   10 type  1   force =    -0.00001964    0.00001487   -0.00005450
     atom   11 type  1   force =    -0.00000722   -0.00000054    0.00001413
     atom   12 type  1   force =    -0.00002362    0.00000719    0.00000711
     atom   13 type  1   force =     0.00000872   -0.00000366    0.00000003
     atom   14 type  1   force =     0.00000080   -0.00000125    0.00002415
     atom   15 type  1   force =    -0.00001308   -0.00000212   -0.00001370
     atom   16 type  1   force =    -0.00001718    0.00002894   -0.00000895
     atom   17 type  1   force =    -0.00000373    0.00002321    0.00000969
     atom   18 type  1   force =     0.00001502    0.00000242    0.00003061
     atom   19 type  1   force =     0.00000739   -0.00000185   -0.00001313
     atom   20 type  1   force =     0.00000249   -0.00000363    0.00000051
     atom   21 type  1   force =     0.00000157   -0.00000240   -0.00001277
     atom   22 type  1   force =    -0.00000628    0.00001151   -0.00000358
     atom   23 type  1   force =     0.00004040   -0.00000031    0.00001925
     atom   24 type  1   force =     0.00003038   -0.00003204   -0.00002912
     atom   25 type  1   force =    -0.00000838   -0.00000155    0.00000188
     atom   26 type  1   force =    -0.00001520    0.00000888    0.00000062
     atom   27 type  1   force =    -0.00004137    0.00000673   -0.00000745
     atom   28 type  1   force =     0.00000745    0.00004944    0.00000101
     atom   29 type  1   force =     0.00001073   -0.00001028    0.00002992
     atom   30 type  1   force =     0.00002249   -0.00004317    0.00002684
     atom   31 type  1   force =    -0.00001999    0.00000381    0.00001660
     atom   32 type  1   force =    -0.00002592   -0.00002205   -0.00001774
     atom   33 type  1   force =     0.00000524   -0.00002447   -0.00001099
     atom   34 type  1   force =     0.00003932   -0.00001807    0.00000981
     atom   35 type  1   force =    -0.00000131   -0.00001122    0.00000409
     atom   36 type  1   force =     0.00000120   -0.00000711    0.00000315
     atom   37 type  1   force =    -0.00001499   -0.00002504   -0.00001148
     atom   38 type  1   force =    -0.00000579    0.00001643   -0.00003436
     atom   39 type  1   force =     0.00000471    0.00000937   -0.00000791
     atom   40 type  1   force =     0.00001047    0.00002458   -0.00000648
     atom   41 type  1   force =     0.00002618   -0.00000433   -0.00005263
     atom   42 type  1   force =     0.00002168   -0.00003322   -0.00000562
     atom   43 type  1   force =     0.00000944   -0.00000375    0.00000447
     atom   44 type  1   force =     0.00000011    0.00000175    0.00000638
     atom   45 type  2   force =     0.00006160   -0.00012143   -0.00009348
     atom   46 type  2   force =    -0.00004786    0.00011197    0.00002018
     atom   47 type  2   force =    -0.00005211    0.00000328   -0.00005771
     atom   48 type  2   force =     0.00008044   -0.00008808    0.00024432
     atom   49 type  2   force =     0.00008800    0.00022863   -0.00032759
     atom   50 type  2   force =    -0.00016417    0.00003731    0.00013836
     atom   51 type  2   force =     0.00006021   -0.00003167    0.00015359
     atom   52 type  2   force =    -0.00013570    0.00013406   -0.00010984
     atom   53 type  2   force =     0.00007532    0.00007440    0.00019674
     atom   54 type  2   force =     0.00004225    0.00014487    0.00007057
     atom   55 type  2   force =    -0.00000485    0.00005107   -0.00006826
     atom   56 type  2   force =     0.00019555   -0.00012231   -0.00006949
     atom   57 type  2   force =    -0.00017382    0.00004760    0.00001030
     atom   58 type  2   force =    -0.00016279    0.00009213   -0.00007368
     atom   59 type  2   force =     0.00012326   -0.00011898    0.00029327
     atom   60 type  2   force =    -0.00011706   -0.00009690   -0.00001278
     atom   61 type  2   force =     0.00015099   -0.00020762   -0.00003010
     atom   62 type  2   force =    -0.00009664   -0.00013550    0.00007487
     atom   63 type  2   force =    -0.00004314   -0.00003108   -0.00016912
     atom   64 type  2   force =     0.00006529    0.00010945   -0.00012016
     atom   65 type  2   force =     0.00013774   -0.00014562   -0.00015989
     atom   66 type  2   force =     0.00004096    0.00001048    0.00007481

     Total force =     0.566584     Total SCF correction =     0.001022


     Computing stress (Cartesian axis) and pressure


     negative rho (up, down):  4.968E-01 0.000E+00
          total   stress  (Ry/bohr**3)                   (kbar)     P=       -2.99
  -0.00002039   0.00000015  -0.00000029           -3.00        0.02       -0.04
   0.00000015  -0.00002033  -0.00000041            0.02       -2.99       -0.06
  -0.00000029  -0.00000041  -0.00002017           -0.04       -0.06       -2.97


     init_run     :      7.51s CPU      7.92s WALL (       1 calls)
     electrons    :     74.61s CPU     79.59s WALL (       1 calls)
     forces       :      5.57s CPU      5.87s WALL (       1 calls)
     stress       :     16.79s CPU     17.12s WALL (       1 calls)

     Called by init_run:
     wfcinit      :      2.76s CPU      2.93s WALL (       1 calls)
     potinit      :      1.30s CPU      1.36s WALL (       1 calls)
     hinit0       :      1.02s CPU      1.08s WALL (       1 calls)

     Called by electrons:
     c_bands      :     49.93s CPU     52.57s WALL (      10 calls)
     sum_band     :     13.89s CPU     14.97s WALL (      10 calls)
     v_of_rho     :      6.54s CPU      7.03s WALL (      11 calls)
     newd         :      2.92s CPU      3.71s WALL (      11 calls)
     PAW_pot      :      1.04s CPU      1.05s WALL (      11 calls)
     mix_rho      :      1.05s CPU      1.13s WALL (      10 calls)

     Called by c_bands:
     init_us_2    :      0.66s CPU      0.69s WALL (      21 calls)
     init_us_2:cp :      0.66s CPU      0.68s WALL (      21 calls)
     regterg      :     49.02s CPU     51.64s WALL (      10 calls)

     Called by *egterg:
     rdiaghg      :      0.24s CPU      0.24s WALL (      31 calls)
     h_psi        :     43.89s CPU     46.15s WALL (      32 calls)
     s_psi        :      1.38s CPU      1.38s WALL (      32 calls)
     g_psi        :      0.14s CPU      0.14s WALL (      21 calls)

     Called by h_psi:
     h_psi:calbec :      1.43s CPU      1.44s WALL (      32 calls)
     vloc_psi     :     40.73s CPU     42.96s WALL (      32 calls)
     add_vuspsi   :      1.37s CPU      1.37s WALL (      32 calls)

     General routines
     calbec       :      2.12s CPU      2.13s WALL (      47 calls)
     fft          :      3.63s CPU      4.14s WALL (     119 calls)
     ffts         :      0.24s CPU      0.27s WALL (      10 calls)
     fftw         :     36.43s CPU     38.93s WALL (    2890 calls)

     Parallel routines

     PWSCF        :   1m44.61s CPU   1m50.68s WALL


   This run was terminated on:  22:13:57  27Mar2024            

=------------------------------------------------------------------------------=
   JOB DONE.
=------------------------------------------------------------------------------=
