
     Program PWSCF v.7.2 starts on 27Mar2024 at  7:44:58 

     This program is part of the open-source Quantum ESPRESSO suite
     for quantum simulation of materials; please cite
         "P. Giannozzi et al., J. Phys.:Condens. Matter 21 395502 (2009);
         "P. Giannozzi et al., J. Phys.:Condens. Matter 29 465901 (2017);
         "P. Giannozzi et al., J. Chem. Phys. 152 154105 (2020);
          URL http://www.quantum-espresso.org", 
     in publications or presentations arising from this work. More details at
     http://www.quantum-espresso.org/quote

     Parallel version (MPI), running on    32 processors

     MPI processes distributed on     1 nodes
     170201 MiB available memory on the printing compute node when the environment starts

     Reading input from pw-wt-156.in
Warning: card &CELL ignored
Warning: card / ignored

     Current dimensions of program PWSCF are:
     Max number of different atomic species (ntypx) = 10
     Max number of k-points (npk) =  40000
     Max angular momentum in pseudopotentials (lmaxx) =  4
     file O.pbe-n-kjpaw_psl.0.1.UPF: wavefunction(s)  2P renormalized

     IMPORTANT: XC functional enforced from input :
     Exchange-correlation= PBE
                           (   1   4   3   4   0   0   0)
     Any further DFT definition will be discarded
     Please, verify this is what you really want


     gamma-point specific algorithms are used

     R & G space division:  proc/nbgrp/npool/nimage =      32
     Subspace diagonalization in iterative solution of the eigenvalue problem:
     a serial algorithm will be used


     Parallelization info
     --------------------
     sticks:   dense  smooth     PW     G-vecs:    dense   smooth      PW
     Min        1707    1707    426               301015   301015   37634
     Max        1710    1710    428               301034   301034   37648
     Sum       54693   54693  13673              9632757  9632757 1204469

     Using Slab Decomposition



     bravais-lattice index     =            0
     lattice parameter (alat)  =      75.7119  a.u.
     unit-cell volume          =  434002.3113 (a.u.)^3
     number of atoms/cell      =           66
     number of atomic types    =            2
     number of electrons       =       176.00
     number of Kohn-Sham states=           88
     kinetic-energy cutoff     =      30.0000  Ry
     charge density cutoff     =     120.0000  Ry
     scf convergence threshold =      1.0E-06
     mixing beta               =       0.5000
     number of iterations used =            8  plain     mixing
     Exchange-correlation= PBE
                           (   1   4   3   4   0   0   0)

     celldm(1)=  75.711877  celldm(2)=   0.000000  celldm(3)=   0.000000
     celldm(4)=   0.000000  celldm(5)=   0.000000  celldm(6)=   0.000000

     crystal axes: (cart. coord. in units of alat)
               a(1) = (   1.000000   0.000000   0.000000 )  
               a(2) = (   0.000000   1.000000   0.000000 )  
               a(3) = (   0.000000   0.000000   1.000000 )  

     reciprocal axes: (cart. coord. in units 2 pi/alat)
               b(1) = (  1.000000  0.000000  0.000000 )  
               b(2) = (  0.000000  1.000000  0.000000 )  
               b(3) = (  0.000000  0.000000  1.000000 )  


     PseudoPot. # 1 for H  read from file:
     /share/pfaendtnergroup/rverma7/QE_PP/H.pbe-rrkjus_psl.1.0.0.UPF
     MD5 check sum: f52b6d4d1c606e5624b1dc7b2218f220
     Pseudo is Ultrasoft, Zval =  1.0
     Generated using "atomic" code by A. Dal Corso  v.5.1
     Using radial grid of  929 points,  2 beta functions with: 
                l(1) =   0
                l(2) =   0
     Q(r) pseudized with 0 coefficients 


     PseudoPot. # 2 for O  read from file:
     /share/pfaendtnergroup/rverma7/QE_PP/O.pbe-n-kjpaw_psl.0.1.UPF
     MD5 check sum: 0234752ac141de4415c5fc33072bef88
     Pseudo is Projector augmented-wave + core cor, Zval =  6.0
     Generated using "atomic" code by A. Dal Corso  v.5.0.99 svn rev. 10869
     Shape of augmentation charge: BESSEL
     Using radial grid of 1095 points,  4 beta functions with: 
                l(1) =   0
                l(2) =   0
                l(3) =   1
                l(4) =   1
     Q(r) pseudized with 0 coefficients 


     atomic species   valence    mass     pseudopotential
        H              1.00     1.00800     H ( 1.00)
        O              6.00    15.99900     O ( 1.00)

     No symmetry found



   Cartesian axes

     site n.     atom                  positions (alat units)
         1           H   tau(   1) = (   0.3103207   0.1581181   0.4784475  )
         2           H   tau(   2) = (   0.3335829   0.1576189   0.4445276  )
         3           H   tau(   3) = (   0.3147385   0.3092974   0.3664545  )
         4           H   tau(   4) = (   0.2823162   0.3123924   0.3854237  )
         5           H   tau(   5) = (   0.2381131   0.3785349   0.3188569  )
         6           H   tau(   6) = (   0.2449769   0.3459379   0.3403469  )
         7           H   tau(   7) = (   0.3739423   0.1150131   0.3383751  )
         8           H   tau(   8) = (   0.3520529   0.1489829   0.3443404  )
         9           H   tau(   9) = (   0.2223137   0.2344690   0.4346936  )
        10           H   tau(  10) = (   0.1876451   0.2578560   0.4458755  )
        11           H   tau(  11) = (   0.3163360   0.2995882   0.4324722  )
        12           H   tau(  12) = (   0.3274679   0.3196556   0.4648446  )
        13           H   tau(  13) = (   0.2708848   0.1957569   0.3714963  )
        14           H   tau(  14) = (   0.2649944   0.2348184   0.3630101  )
        15           H   tau(  15) = (   0.2041682   0.2539124   0.3492325  )
        16           H   tau(  16) = (   0.2186697   0.2568326   0.3886185  )
        17           H   tau(  17) = (   0.3326844   0.3497816   0.3160115  )
        18           H   tau(  18) = (   0.3181580   0.3113940   0.3122676  )
        19           H   tau(  19) = (   0.3179583   0.1936603   0.3337327  )
        20           H   tau(  20) = (   0.3559965   0.2048172   0.3308623  )
        21           H   tau(  21) = (   0.2969425   0.2440784   0.3164108  )
        22           H   tau(  22) = (   0.2966430   0.2779234   0.2922751  )
        23           H   tau(  23) = (   0.2734307   0.2198677   0.4598278  )
        24           H   tau(  24) = (   0.2584301   0.1928866   0.4372395  )
        25           H   tau(  25) = (   0.2531137   0.3061775   0.2640459  )
        26           H   tau(  26) = (   0.2638712   0.3280669   0.2943217  )
        27           H   tau(  27) = (   0.2888057   0.1531761   0.4244103  )
        28           H   tau(  28) = (   0.2837639   0.1329589   0.3889180  )
        29           H   tau(  29) = (   0.3521528   0.2357918   0.4333957  )
        30           H   tau(  30) = (   0.3658804   0.1993261   0.4516161  )
        31           H   tau(  31) = (   0.2654437   0.3087483   0.4540871  )
        32           H   tau(  32) = (   0.2353925   0.2903781   0.4377137  )
        33           H   tau(  33) = (   0.2390615   0.2992887   0.3725945  )
        34           H   tau(  34) = (   0.2382379   0.3282166   0.4033446  )
        35           H   tau(  35) = (   0.3238737   0.2372894   0.4748534  )
        36           H   tau(  36) = (   0.2967428   0.2640709   0.4746038  )
        37           H   tau(  37) = (   0.3278922   0.2685636   0.3912642  )
        38           H   tau(  38) = (   0.3597404   0.2473980   0.3729440  )
        39           H   tau(  39) = (   0.3010608   0.1728441   0.5457631  )
        40           H   tau(  40) = (   0.3137901   0.1965057   0.5159366  )
        41           H   tau(  41) = (   0.3500811   0.1877449   0.3950081  )
        42           H   tau(  42) = (   0.3672283   0.1517784   0.3888930  )
        43           H   tau(  43) = (   0.3515038   0.2546113   0.3172345  )
        44           H   tau(  44) = (   0.3801073   0.2808187   0.3315612  )
        45           O   tau(  45) = (   0.3099214   0.1596156   0.4525646  )
        46           O   tau(  46) = (   0.3053788   0.3002870   0.3890927  )
        47           O   tau(  47) = (   0.2493448   0.3559965   0.3179084  )
        48           O   tau(  48) = (   0.3578934   0.1255709   0.3554474  )
        49           O   tau(  49) = (   0.2072632   0.2554349   0.4276301  )
        50           O   tau(  50) = (   0.3102459   0.3031823   0.4559341  )
        51           O   tau(  51) = (   0.2807438   0.2146262   0.3570698  )
        52           O   tau(  52) = (   0.2248596   0.2593785   0.3630101  )
        53           O   tau(  53) = (   0.3265943   0.3292899   0.3289155  )
        54           O   tau(  54) = (   0.3411956   0.1853238   0.3286160  )
        55           O   tau(  55) = (   0.3124672   0.2630975   0.3068763  )
        56           O   tau(  56) = (   0.2506427   0.2136279   0.4485960  )
        57           O   tau(  57) = (   0.2715837   0.3080494   0.2784475  )
        58           O   tau(  58) = (   0.2754524   0.1541994   0.4011981  )
        59           O   tau(  59) = (   0.3545738   0.2224385   0.4551354  )
        60           O   tau(  60) = (   0.2419568   0.3123424   0.4444028  )
        61           O   tau(  61) = (   0.2434544   0.3248471   0.3781854  )
        62           O   tau(  62) = (   0.3013852   0.2408336   0.4844627  )
        63           O   tau(  63) = (   0.3467116   0.2501435   0.3944091  )
        64           O   tau(  64) = (   0.3137901   0.1729689   0.5239486  )
        65           O   tau(  65) = (   0.3657806   0.1714963   0.4056408  )
        66           O   tau(  66) = (   0.3743667   0.2554349   0.3304880  )

     number of k points=     1
                       cart. coord. in units 2pi/alat
        k(    1) = (   0.0000000   0.0000000   0.0000000), wk =   2.0000000

     Dense  grid:  4816379 G-vectors     FFT dimensions: ( 270, 270, 270)

     Estimated max dynamical RAM per process >     612.29 MB

     Estimated total dynamical RAM >      19.13 GB

     Check: negative core charge=   -0.000006

     Initial potential from superposition of free atoms

     starting charge     175.9995, renormalised to     176.0000

     negative rho (up, down):  3.685E-01 0.000E+00
     Starting wfcs are  132 randomized atomic wfcs
     Checking if some PAW data can be deallocated... 

     total cpu time spent up to now is        9.2 secs

     Self-consistent Calculation

     iteration #  1     ecut=    30.00 Ry     beta= 0.50
     Davidson diagonalization with overlap
     ethr =  1.00E-02,  avg # of iterations =  2.0

     negative rho (up, down):  4.330E-01 0.000E+00

     total cpu time spent up to now is       20.3 secs

     total energy              =    -965.79317298 Ry
     estimated scf accuracy    <       6.74125781 Ry

     iteration #  2     ecut=    30.00 Ry     beta= 0.50
     Davidson diagonalization with overlap
     ethr =  3.83E-03,  avg # of iterations =  2.0

     negative rho (up, down):  4.514E-01 0.000E+00

     total cpu time spent up to now is       29.7 secs

     total energy              =    -967.69123387 Ry
     estimated scf accuracy    <       0.98923252 Ry

     iteration #  3     ecut=    30.00 Ry     beta= 0.50
     Davidson diagonalization with overlap
     ethr =  5.62E-04,  avg # of iterations =  2.0

     negative rho (up, down):  4.933E-01 0.000E+00

     total cpu time spent up to now is       38.2 secs

     total energy              =    -967.74320337 Ry
     estimated scf accuracy    <       0.12870438 Ry

     iteration #  4     ecut=    30.00 Ry     beta= 0.50
     Davidson diagonalization with overlap
     ethr =  7.31E-05,  avg # of iterations =  3.0

     negative rho (up, down):  4.937E-01 0.000E+00

     total cpu time spent up to now is       48.1 secs

     total energy              =    -967.76677824 Ry
     estimated scf accuracy    <       0.04018871 Ry

     iteration #  5     ecut=    30.00 Ry     beta= 0.50
     Davidson diagonalization with overlap
     ethr =  2.28E-05,  avg # of iterations =  2.0

     negative rho (up, down):  4.927E-01 0.000E+00

     total cpu time spent up to now is       55.8 secs

     total energy              =    -967.76727361 Ry
     estimated scf accuracy    <       0.00778913 Ry

     iteration #  6     ecut=    30.00 Ry     beta= 0.50
     Davidson diagonalization with overlap
     ethr =  4.43E-06,  avg # of iterations =  2.0

     negative rho (up, down):  4.921E-01 0.000E+00

     total cpu time spent up to now is       63.8 secs

     total energy              =    -967.76743587 Ry
     estimated scf accuracy    <       0.00171600 Ry

     iteration #  7     ecut=    30.00 Ry     beta= 0.50
     Davidson diagonalization with overlap
     ethr =  9.75E-07,  avg # of iterations =  2.0

     negative rho (up, down):  4.917E-01 0.000E+00

     total cpu time spent up to now is       72.6 secs

     total energy              =    -967.76760721 Ry
     estimated scf accuracy    <       0.00020719 Ry

     iteration #  8     ecut=    30.00 Ry     beta= 0.50
     Davidson diagonalization with overlap
     ethr =  1.18E-07,  avg # of iterations =  2.0

     negative rho (up, down):  4.917E-01 0.000E+00

     total cpu time spent up to now is       82.1 secs

     total energy              =    -967.76767191 Ry
     estimated scf accuracy    <       0.00002047 Ry

     iteration #  9     ecut=    30.00 Ry     beta= 0.50
     Davidson diagonalization with overlap
     ethr =  1.16E-08,  avg # of iterations =  2.0

     negative rho (up, down):  4.918E-01 0.000E+00

     total cpu time spent up to now is       90.3 secs

     total energy              =    -967.76766908 Ry
     estimated scf accuracy    <       0.00001152 Ry

     iteration # 10     ecut=    30.00 Ry     beta= 0.50
     Davidson diagonalization with overlap
     ethr =  6.55E-09,  avg # of iterations =  2.0

     negative rho (up, down):  4.918E-01 0.000E+00

     total cpu time spent up to now is       99.2 secs

     End of self-consistent calculation

          k = 0.0000 0.0000 0.0000 (602235 PWs)   bands (ev):

   -25.9680 -25.8234 -25.7219 -25.5698 -25.4592 -25.3022 -25.2215 -25.2118
   -25.1538 -24.9703 -24.9286 -24.8950 -24.6918 -24.5661 -24.4130 -24.3861
   -24.3385 -24.2847 -23.9516 -23.7313 -23.5401 -23.4117 -13.8921 -13.8740
   -13.6854 -13.5736 -13.1941 -13.1843 -13.1109 -13.0849 -12.9891 -12.8828
   -12.6728 -12.6474 -12.5750 -12.4917 -12.3821 -12.3100 -12.1429 -12.0203
   -11.9782 -11.7543 -11.7088 -11.6778 -11.1645 -10.9065 -10.6177 -10.4703
   -10.3859 -10.1173  -9.9776  -9.8896  -9.7664  -9.5283  -9.4201  -9.3484
    -9.2893  -9.1630  -8.9469  -8.8481  -8.6988  -8.6682  -8.4030  -8.3822
    -8.0130  -8.0068  -7.9146  -7.8588  -7.7368  -7.6820  -7.6669  -7.5748
    -7.5546  -7.3721  -7.3533  -7.2902  -7.2311  -7.1654  -7.0991  -6.9628
    -6.8259  -6.7688  -6.7490  -6.7015  -6.4974  -6.2744  -6.2148  -5.9578

     highest occupied level (ev):    -5.9578

!    total energy              =    -967.76767047 Ry
     estimated scf accuracy    <       0.00000049 Ry

     The total energy is the sum of the following terms:
     one-electron contribution =   -6017.34171587 Ry
     hartree contribution      =    3043.94984221 Ry
     xc contribution           =    -193.49526951 Ry
     ewald contribution        =    2408.44031581 Ry
     one-center paw contrib.   =    -209.32084311 Ry

     convergence has been achieved in  10 iterations

     negative rho (up, down):  4.918E-01 0.000E+00

     Forces acting on atoms (cartesian axes, Ry/au):

     atom    1 type  1   force =    -0.00470116    0.00180891   -0.06257033
     atom    2 type  1   force =    -0.02280176    0.00821837   -0.00186888
     atom    3 type  1   force =     0.00412922   -0.01854688    0.06089234
     atom    4 type  1   force =     0.02592911   -0.02983428    0.02846803
     atom    5 type  1   force =     0.02528838   -0.04913816   -0.01021589
     atom    6 type  1   force =     0.00152412   -0.00048701    0.01169082
     atom    7 type  1   force =    -0.04662342    0.03300755    0.05479802
     atom    8 type  1   force =     0.00966888   -0.05730254    0.01684865
     atom    9 type  1   force =    -0.01420378    0.03939533    0.01079070
     atom   10 type  1   force =     0.09872953   -0.01604551   -0.09582330
     atom   11 type  1   force =     0.00008896    0.00955508   -0.03044709
     atom   12 type  1   force =    -0.04598987   -0.04547623   -0.02005291
     atom   13 type  1   force =     0.03518128    0.02947487   -0.02925956
     atom   14 type  1   force =     0.04524242   -0.06925407   -0.02874605
     atom   15 type  1   force =     0.05236568    0.01396013    0.04524452
     atom   16 type  1   force =    -0.02064800    0.00118019   -0.06297684
     atom   17 type  1   force =    -0.01606116   -0.03508691    0.01708822
     atom   18 type  1   force =     0.03288728    0.05794790    0.04891989
     atom   19 type  1   force =     0.03078390   -0.00515055    0.00481593
     atom   20 type  1   force =    -0.00133673   -0.00525295    0.00254535
     atom   21 type  1   force =     0.05366150    0.07286319   -0.02846490
     atom   22 type  1   force =     0.01838007   -0.03925830    0.02278254
     atom   23 type  1   force =    -0.04055148    0.02301236    0.00350824
     atom   24 type  1   force =    -0.02696108    0.01333640   -0.00186923
     atom   25 type  1   force =    -0.05378303   -0.01637296   -0.05224412
     atom   26 type  1   force =     0.01955794   -0.04574154   -0.04062721
     atom   27 type  1   force =    -0.02826597    0.00144065   -0.05492565
     atom   28 type  1   force =    -0.03093918    0.07422931    0.04034528
     atom   29 type  1   force =     0.02312813   -0.04398334    0.00133594
     atom   30 type  1   force =    -0.04023699    0.09442900   -0.01425072
     atom   31 type  1   force =    -0.03933098    0.02244551   -0.02630862
     atom   32 type  1   force =    -0.03367964   -0.06147810   -0.00872225
     atom   33 type  1   force =    -0.01191031    0.07413148    0.01279233
     atom   34 type  1   force =     0.01434869   -0.02174582   -0.03445073
     atom   35 type  1   force =     0.03158338   -0.03268749   -0.00894918
     atom   36 type  1   force =     0.01374682   -0.04453100    0.03769977
     atom   37 type  1   force =     0.05800101   -0.06638561   -0.00606113
     atom   38 type  1   force =    -0.01996333    0.02250591    0.02097036
     atom   39 type  1   force =     0.02567330    0.00582088   -0.05336367
     atom   40 type  1   force =    -0.00833324   -0.00986453    0.01500241
     atom   41 type  1   force =     0.01874783   -0.01862859    0.01217777
     atom   42 type  1   force =    -0.00415495    0.03768444    0.03291933
     atom   43 type  1   force =     0.05966586    0.02791666    0.03361192
     atom   44 type  1   force =    -0.02689781   -0.09338527   -0.00563754
     atom   45 type  2   force =     0.04145239   -0.01164130    0.08672925
     atom   46 type  2   force =    -0.02529130    0.07275121   -0.09285871
     atom   47 type  2   force =    -0.02814354    0.05226982    0.00896938
     atom   48 type  2   force =     0.03317829    0.02615998   -0.07552779
     atom   49 type  2   force =    -0.06829794   -0.02461986    0.08706018
     atom   50 type  2   force =     0.03834956    0.04585821    0.05312563
     atom   51 type  2   force =    -0.07552918    0.02482766    0.04491415
     atom   52 type  2   force =    -0.03472020   -0.00877045    0.02950977
     atom   53 type  2   force =    -0.00628806   -0.02734420   -0.05656457
     atom   54 type  2   force =    -0.02985718    0.01067662   -0.00277057
     atom   55 type  2   force =    -0.09226237   -0.04490569   -0.00269530
     atom   56 type  2   force =     0.06156316   -0.04154019    0.00039851
     atom   57 type  2   force =     0.03498503    0.06377906    0.08207491
     atom   58 type  2   force =     0.03866224   -0.07256071   -0.01277455
     atom   59 type  2   force =     0.04847571   -0.04219832   -0.00414309
     atom   60 type  2   force =     0.06415999    0.05394410    0.03830068
     atom   61 type  2   force =    -0.00972396   -0.05768927    0.00809897
     atom   62 type  2   force =    -0.05805913    0.05940291   -0.01264613
     atom   63 type  2   force =    -0.03037619    0.03131606   -0.00890561
     atom   64 type  2   force =    -0.01941615    0.00887169    0.02642660
     atom   65 type  2   force =    -0.01617034   -0.02427459   -0.02586884
     atom   66 type  2   force =    -0.02763022    0.06696077   -0.02826543
     The non-local contrib.  to forces
     atom    1 type  1   force =     0.00085411    0.00433692   -0.08793874
     atom    2 type  1   force =    -0.09402923    0.00735408    0.03545851
     atom    3 type  1   force =    -0.03043502   -0.02957175    0.07338703
     atom    4 type  1   force =     0.06706495   -0.03664186    0.01056547
     atom    5 type  1   force =     0.04266674   -0.08795300   -0.00222326
     atom    6 type  1   force =     0.01609874    0.04218715   -0.08994786
     atom    7 type  1   force =    -0.05584657    0.03924663    0.05870346
     atom    8 type  1   force =     0.01846851   -0.06743988    0.03044012
     atom    9 type  1   force =    -0.03933237    0.05453346   -0.01641190
     atom   10 type  1   force =     0.05564151   -0.00839838   -0.05091775
     atom   11 type  1   force =    -0.02476414    0.01740874    0.10499384
     atom   12 type  1   force =    -0.06317785   -0.06118503   -0.03514814
     atom   13 type  1   force =     0.03259552    0.06834456   -0.05103177
     atom   14 type  1   force =     0.04883706   -0.06441057   -0.01768803
     atom   15 type  1   force =     0.07511770    0.02009269    0.05342037
     atom   16 type  1   force =     0.01565663    0.00689030   -0.07544687
     atom   17 type  1   force =    -0.02563355   -0.08441889    0.04967338
     atom   18 type  1   force =     0.02932289    0.06416587    0.05426873
     atom   19 type  1   force =     0.09201783   -0.03016674   -0.01971458
     atom   20 type  1   force =    -0.06787101   -0.08419741   -0.00860091
     atom   21 type  1   force =     0.04725301    0.06127593   -0.03136470
     atom   22 type  1   force =     0.04859597   -0.04670867    0.04631291
     atom   23 type  1   force =    -0.07041153   -0.01855557   -0.03555942
     atom   24 type  1   force =    -0.03200939    0.08624522    0.04679819
     atom   25 type  1   force =     0.09782680    0.01084059    0.07785312
     atom   26 type  1   force =     0.01950402   -0.05566334   -0.04416892
     atom   27 type  1   force =    -0.03127098    0.00244687   -0.05784580
     atom   28 type  1   force =    -0.02707530    0.07096091    0.04271444
     atom   29 type  1   force =     0.00942218   -0.04913151    0.07378140
     atom   30 type  1   force =    -0.03845691    0.07797827    0.00952192
     atom   31 type  1   force =    -0.08279070    0.01013634   -0.03528755
     atom   32 type  1   force =     0.03585832    0.10830558    0.03327638
     atom   33 type  1   force =     0.01223496    0.07449970    0.01938268
     atom   34 type  1   force =     0.01662413   -0.01374959   -0.08376177
     atom   35 type  1   force =    -0.09258966    0.01616798    0.03800215
     atom   36 type  1   force =     0.01630712   -0.08208214    0.03392761
     atom   37 type  1   force =     0.05448390   -0.05102686    0.00649811
     atom   38 type  1   force =    -0.05077022    0.01195042    0.07996573
     atom   39 type  1   force =     0.04797166    0.00375639   -0.08430878
     atom   40 type  1   force =    -0.00179543   -0.09798425    0.03661028
     atom   41 type  1   force =     0.06365780   -0.06840951    0.04107529
     atom   42 type  1   force =    -0.00700683    0.06700364    0.05385502
     atom   43 type  1   force =     0.06793144    0.00450839    0.03988999
     atom   44 type  1   force =    -0.02123434   -0.08337154   -0.00470247
     atom   45 type  2   force =     1.44816777   -0.41797024    0.98414797
     atom   46 type  2   force =    -0.54659983    0.98557238   -1.39622631
     atom   47 type  2   force =    -1.08350243    0.83992005    1.31977014
     atom   48 type  2   force =     0.93761707    0.71817585   -1.77964003
     atom   49 type  2   force =    -0.49406583   -0.87278820    1.34112378
     atom   50 type  2   force =     1.52503160    0.88500170   -0.87647653
     atom   51 type  2   force =    -1.60884149    0.03814051    1.10180495
     atom   52 type  2   force =    -1.77314764   -0.41998906    0.54695978
     atom   53 type  2   force =    -0.13452389    0.31688847   -2.04874243
     atom   54 type  2   force =    -0.45289449    1.85973922    0.67460760
     atom   55 type  2   force =    -1.79930224   -0.32345021   -0.24331468
     atom   56 type  2   force =     1.55226711   -0.88511446   -0.40182869
     atom   57 type  2   force =    -1.74661047    0.75973158   -0.14349688
     atom   58 type  2   force =     1.22914365   -1.43789684    0.29233056
     atom   59 type  2   force =     0.50054407   -0.72114572   -1.49171175
     atom   60 type  2   force =     1.11039070   -1.72332992   -0.06465822
     atom   61 type  2   force =    -0.41314066   -1.25815438    1.07548571
     atom   62 type  2   force =     0.87615799    1.15482910   -1.29393639
     atom   63 type  2   force =    -0.18890288    0.83532354   -1.42139270
     atom   64 type  2   force =    -1.05023593    1.70315203    0.95184226
     atom   65 type  2   force =    -1.14287754   -0.14257884   -1.69083420
     atom   66 type  2   force =    -1.06340177    1.65952853   -0.59920060
     The ionic contribution  to forces
     atom    1 type  1   force =     0.02215874   -2.32039181    4.05700349
     atom    2 type  1   force =     3.68366684   -2.50420834    0.30008762
     atom    3 type  1   force =     1.91056281    2.53645027   -2.09588723
     atom    4 type  1   force =    -1.70277236    2.83752772   -0.10503593
     atom    5 type  1   force =    -2.36175305    4.93105878   -0.75499696
     atom    6 type  1   force =    -1.77491824    1.02539791    1.58131418
     atom    7 type  1   force =     2.99165311   -3.17657926   -2.94315115
     atom    8 type  1   force =     0.41887645   -0.19538535   -2.22895167
     atom    9 type  1   force =    -1.47046401   -2.22610874    1.28416813
     atom   10 type  1   force =    -4.56782473    0.30242751    2.95301757
     atom   11 type  1   force =     2.03959453    1.30635772   -1.33763476
     atom   12 type  1   force =     3.25346959    3.97678637    2.82573480
     atom   13 type  1   force =    -2.43533901   -3.40576417    0.46483768
     atom   14 type  1   force =    -2.43054306    1.13551810   -0.40386555
     atom   15 type  1   force =    -4.88841779   -1.05988263   -3.02646340
     atom   16 type  1   force =    -2.75969667   -0.55858249    1.44354020
     atom   17 type  1   force =     2.08158279    4.78476093   -2.65892199
     atom   18 type  1   force =     0.28026468   -0.13218726   -3.32275585
     atom   19 type  1   force =    -2.57126430   -0.70323237   -1.44329271
     atom   20 type  1   force =     3.53114507    1.29654794   -1.44726650
     atom   21 type  1   force =    -2.02015539   -2.45331959   -1.37945369
     atom   22 type  1   force =    -1.34787818    0.92749160   -3.81353468
     atom   23 type  1   force =     0.87056024   -0.10167447    2.44229318
     atom   24 type  1   force =    -0.91360231   -3.81030330   -0.50728815
     atom   25 type  1   force =    -3.86561939   -0.02539644   -4.57938432
     atom   26 type  1   force =    -1.21949534    2.60217927   -0.85604945
     atom   27 type  1   force =    -0.22577842   -2.61252704    1.72485048
     atom   28 type  1   force =    -0.05516014   -4.89166180   -1.97438320
     atom   29 type  1   force =     1.84936475    1.63952183   -0.80091653
     atom   30 type  1   force =     3.60889488   -3.02476942    1.31798739
     atom   31 type  1   force =     1.40766606    1.51530064    3.05461435
     atom   32 type  1   force =    -2.36050359   -1.69035216    0.65827707
     atom   33 type  1   force =    -2.04539138   -0.98456740   -1.13073699
     atom   34 type  1   force =    -2.20389585    2.93549633    2.70903980
     atom   35 type  1   force =     3.16210569    0.13732279    1.40592867
     atom   36 type  1   force =    -0.78666546    3.03761224    1.47958205
     atom   37 type  1   force =    -0.18978715    1.77730566   -0.04099109
     atom   38 type  1   force =     3.65558319   -0.16867396   -2.18491648
     atom   39 type  1   force =    -1.74587236   -0.86927264    4.80307883
     atom   40 type  1   force =     0.37392669    2.32998607    1.57076002
     atom   41 type  1   force =    -0.45088972    0.88695956   -1.30969741
     atom   42 type  1   force =     2.13170601   -3.61495689   -1.19186885
     atom   43 type  1   force =     0.06348314   -0.15497018   -3.16464200
     atom   44 type  1   force =     3.23591316    3.74551008   -0.88872423
     atom   45 type  2   force =    -1.47172633  -12.15275044    6.84497862
     atom   46 type  2   force =     4.63129263    8.10325404    3.08995392
     atom   47 type  2   force =    -4.64186113   11.85075698   -8.65198135
     atom   48 type  2   force =     4.04942757  -15.19336548   -2.42451761
     atom   49 type  2   force =   -15.96531408    0.73125566    3.29347518
     atom   50 type  2   force =     3.20280989   10.25681129   12.74178325
     atom   51 type  2   force =    -3.76588821   -6.77969147   -8.83859387
     atom   52 type  2   force =   -10.94083774   -1.27403467   -8.25382299
     atom   53 type  2   force =     8.41472985   12.44098716   -3.06526302
     atom   54 type  2   force =     5.25096492  -10.52474181  -12.89032548
     atom   55 type  2   force =     3.77985445   -1.05281575  -13.39395316
     atom   56 type  2   force =   -12.34507250   -4.74774386    8.30576234
     atom   57 type  2   force =    -1.17574945    2.31210054  -14.37002162
     atom   58 type  2   force =    -9.85215620  -11.63880087   -3.12014388
     atom   59 type  2   force =    12.60656422    0.48398298   11.64733189
     atom   60 type  2   force =    -9.88673070   13.94995326   10.64315911
     atom   61 type  2   force =    -8.67610017   13.90339530   -2.37039981
     atom   62 type  2   force =    -2.23043034    0.74444879   17.54664456
     atom   63 type  2   force =    11.17049218    1.10132564    3.33303055
     atom   64 type  2   force =     2.80758286   -8.91119708   12.10068734
     atom   65 type  2   force =    14.07046523   -8.20742419    4.48768913
     atom   66 type  2   force =    16.78919255   -0.37845764   -7.14077788
     The local contribution  to forces
     atom    1 type  1   force =    -0.02777089    2.31784515   -4.03164573
     atom    2 type  1   force =    -3.61247823    2.50505628   -0.33744103
     atom    3 type  1   force =    -1.87606349   -2.52543671    2.08336336
     atom    4 type  1   force =     1.66156470   -2.83073024    0.12291039
     atom    5 type  1   force =     2.34430415   -4.89225096    0.74698969
     atom    6 type  1   force =     1.76027456   -1.06807936   -1.47969175
     atom    7 type  1   force =    -2.98248939    3.17032485    2.93922840
     atom    8 type  1   force =    -0.42772874    0.20549579    2.21535919
     atom    9 type  1   force =     1.49552017    2.21097186   -1.25699623
     atom   10 type  1   force =     4.61085249   -0.31009029   -2.99794208
     atom   11 type  1   force =    -2.01478618   -1.31422629    1.20213839
     atom   12 type  1   force =    -3.23631207   -3.96106604   -2.81065691
     atom   13 type  1   force =     2.43784501    3.36688645   -0.44307776
     atom   14 type  1   force =     2.42687192   -1.14036452    0.39279917
     atom   15 type  1   force =     4.86558640    1.05372967    3.01826299
     atom   16 type  1   force =     2.72332726    0.55285646   -1.43107424
     atom   17 type  1   force =    -2.07207318   -4.73544872    2.62632269
     atom   18 type  1   force =    -0.27675757    0.12596102    3.31739861
     atom   19 type  1   force =     2.50993801    0.72825884    1.46781348
     atom   20 type  1   force =    -3.46465701   -1.21757450    1.45840644
     atom   21 type  1   force =     2.02648701    2.46488426    1.38233700
     atom   22 type  1   force =     1.31759139   -0.92006567    3.78998819
     atom   23 type  1   force =    -0.84074196    0.14322247   -2.40325734
     atom   24 type  1   force =     0.91860758    3.73737626    0.45860171
     atom   25 type  1   force =     3.71390762   -0.00183009    4.44924657
     atom   26 type  1   force =     1.21946393   -2.59224786    0.85958494
     atom   27 type  1   force =     0.22876326    2.61149274   -1.72189588
     atom   28 type  1   force =     0.05126756    4.89484587    1.97196311
     atom   29 type  1   force =    -1.83572759   -1.63437759    0.72843318
     atom   30 type  1   force =    -3.61072779    3.04117291   -1.34178940
     atom   31 type  1   force =    -1.36423959   -1.50302648   -3.04565074
     atom   32 type  1   force =     2.29090442    1.52050439   -0.70031479
     atom   33 type  1   force =     2.02119124    0.98417854    1.12413888
     atom   34 type  1   force =     2.20156455   -2.94351771   -2.65975699
     atom   35 type  1   force =    -3.03799002   -0.18618306   -1.45291971
     atom   36 type  1   force =     0.78404158   -3.00006374   -1.47585167
     atom   37 type  1   force =     0.19322652   -1.79266099    0.02840070
     atom   38 type  1   force =    -3.62483084    0.17921911    2.12586866
     atom   39 type  1   force =     1.72349027    0.87132760   -4.77212336
     atom   40 type  1   force =    -0.38053144   -2.24185032   -1.59239785
     atom   41 type  1   force =     0.40590041   -0.83718278    1.28076959
     atom   42 type  1   force =    -2.12892019    3.58560755    1.17089668
     atom   43 type  1   force =    -0.07180769    0.17836311    3.15835684
     atom   44 type  1   force =    -3.24164532   -3.75553648    0.88777628
     atom   45 type  2   force =     0.07957929   12.55392378   -7.73175137
     atom   46 type  2   force =    -4.11578587   -9.00627353   -1.80040837
     atom   47 type  2   force =     5.68577015  -12.62889806    7.35438065
     atom   48 type  2   force =    -4.94398559   14.50807749    4.10958699
     atom   49 type  2   force =    16.38415280    0.10806572   -4.53327426
     atom   50 type  2   force =    -4.67371525  -11.08580936  -11.82007199
     atom   51 type  2   force =     5.28245561    6.76680190    7.79282039
     atom   52 type  2   force =    12.66043398    1.68098551    7.74099636
     atom   53 type  2   force =    -8.28771494  -12.78123066    5.03645668
     atom   54 type  2   force =    -4.83209784    8.69363994   12.21959953
     atom   55 type  2   force =    -2.09190260    1.32788590   13.63200627
     atom   56 type  2   force =    10.86975487    5.58282591   -7.90749280
     atom   57 type  2   force =     2.94012514   -3.00092896   14.59385148
     atom   58 type  2   force =     8.67387591   12.98905868    2.81668417
     atom   59 type  2   force =   -13.05162347    0.18687508  -10.17486745
     atom   60 type  2   force =     8.85189531  -12.18863011  -10.54009951
     atom   61 type  2   force =     9.07586766  -12.71558527    1.31355920
     atom   62 type  2   force =     1.30324313   -1.82771324  -16.27729867
     atom   63 type  2   force =   -11.01402507   -1.89584275   -1.93436939
     atom   64 type  2   force =    -1.78731511    7.23408797  -13.01527381
     atom   65 type  2   force =   -12.95390517    8.32304862   -2.83981770
     atom   66 type  2   force =   -15.76356040   -1.19594998    7.70523183
     The core correction contribution to forces
     atom    1 type  1   force =     0.00000000    0.00000000    0.00000000
     atom    2 type  1   force =     0.00000000    0.00000000    0.00000000
     atom    3 type  1   force =     0.00000000    0.00000000    0.00000000
     atom    4 type  1   force =     0.00000000    0.00000000    0.00000000
     atom    5 type  1   force =     0.00000000    0.00000000    0.00000000
     atom    6 type  1   force =     0.00000000    0.00000000    0.00000000
     atom    7 type  1   force =     0.00000000    0.00000000    0.00000000
     atom    8 type  1   force =     0.00000000    0.00000000    0.00000000
     atom    9 type  1   force =     0.00000000    0.00000000    0.00000000
     atom   10 type  1   force =     0.00000000    0.00000000    0.00000000
     atom   11 type  1   force =     0.00000000    0.00000000    0.00000000
     atom   12 type  1   force =     0.00000000    0.00000000    0.00000000
     atom   13 type  1   force =     0.00000000    0.00000000    0.00000000
     atom   14 type  1   force =     0.00000000    0.00000000    0.00000000
     atom   15 type  1   force =     0.00000000    0.00000000    0.00000000
     atom   16 type  1   force =     0.00000000    0.00000000    0.00000000
     atom   17 type  1   force =     0.00000000    0.00000000    0.00000000
     atom   18 type  1   force =     0.00000000    0.00000000    0.00000000
     atom   19 type  1   force =     0.00000000    0.00000000    0.00000000
     atom   20 type  1   force =     0.00000000    0.00000000    0.00000000
     atom   21 type  1   force =     0.00000000    0.00000000    0.00000000
     atom   22 type  1   force =     0.00000000    0.00000000    0.00000000
     atom   23 type  1   force =     0.00000000    0.00000000    0.00000000
     atom   24 type  1   force =     0.00000000    0.00000000    0.00000000
     atom   25 type  1   force =     0.00000000    0.00000000    0.00000000
     atom   26 type  1   force =     0.00000000    0.00000000    0.00000000
     atom   27 type  1   force =     0.00000000    0.00000000    0.00000000
     atom   28 type  1   force =     0.00000000    0.00000000    0.00000000
     atom   29 type  1   force =     0.00000000    0.00000000    0.00000000
     atom   30 type  1   force =     0.00000000    0.00000000    0.00000000
     atom   31 type  1   force =     0.00000000    0.00000000    0.00000000
     atom   32 type  1   force =     0.00000000    0.00000000    0.00000000
     atom   33 type  1   force =     0.00000000    0.00000000    0.00000000
     atom   34 type  1   force =     0.00000000    0.00000000    0.00000000
     atom   35 type  1   force =     0.00000000    0.00000000    0.00000000
     atom   36 type  1   force =     0.00000000    0.00000000    0.00000000
     atom   37 type  1   force =     0.00000000    0.00000000    0.00000000
     atom   38 type  1   force =     0.00000000    0.00000000    0.00000000
     atom   39 type  1   force =     0.00000000    0.00000000    0.00000000
     atom   40 type  1   force =     0.00000000    0.00000000    0.00000000
     atom   41 type  1   force =     0.00000000    0.00000000    0.00000000
     atom   42 type  1   force =     0.00000000    0.00000000    0.00000000
     atom   43 type  1   force =     0.00000000    0.00000000    0.00000000
     atom   44 type  1   force =     0.00000000    0.00000000    0.00000000
     atom   45 type  2   force =    -0.01450055    0.00513895   -0.01066937
     atom   46 type  2   force =     0.00568938   -0.00972526    0.01363109
     atom   47 type  2   force =     0.01125928   -0.00941592   -0.01311573
     atom   48 type  2   force =    -0.00987271   -0.00672649    0.01900110
     atom   49 type  2   force =     0.00691376    0.00879609   -0.01423092
     atom   50 type  2   force =    -0.01568316   -0.01008690    0.00776098
     atom   51 type  2   force =     0.01648819   -0.00039300   -0.01097856
     atom   52 type  2   force =     0.01864372    0.00419115   -0.00459327
     atom   53 type  2   force =     0.00118220   -0.00395774    0.02091698
     atom   54 type  2   force =     0.00407430   -0.01776536   -0.00662311
     atom   55 type  2   force =     0.01886532    0.00341333    0.00256231
     atom   56 type  2   force =    -0.01520103    0.00839838    0.00392754
     atom   57 type  2   force =     0.01690275   -0.00710253    0.00163479
     atom   58 type  2   force =    -0.01209388    0.01487647   -0.00164335
     atom   59 type  2   force =    -0.00706475    0.00804060    0.01494573
     atom   60 type  2   force =    -0.01132450    0.01563900   -0.00016573
     atom   61 type  2   force =     0.00364991    0.01250012   -0.01046024
     atom   62 type  2   force =    -0.00698213   -0.01205227    0.01170355
     atom   63 type  2   force =     0.00195529   -0.00940843    0.01366026
     atom   64 type  2   force =     0.01042560   -0.01708507   -0.01079452
     atom   65 type  2   force =     0.01000484    0.00263542    0.01693329
     atom   66 type  2   force =     0.01001173   -0.01805224    0.00648746
     The Hubbard contrib.    to forces
     atom    1 type  1   force =     0.00000000    0.00000000    0.00000000
     atom    2 type  1   force =     0.00000000    0.00000000    0.00000000
     atom    3 type  1   force =     0.00000000    0.00000000    0.00000000
     atom    4 type  1   force =     0.00000000    0.00000000    0.00000000
     atom    5 type  1   force =     0.00000000    0.00000000    0.00000000
     atom    6 type  1   force =     0.00000000    0.00000000    0.00000000
     atom    7 type  1   force =     0.00000000    0.00000000    0.00000000
     atom    8 type  1   force =     0.00000000    0.00000000    0.00000000
     atom    9 type  1   force =     0.00000000    0.00000000    0.00000000
     atom   10 type  1   force =     0.00000000    0.00000000    0.00000000
     atom   11 type  1   force =     0.00000000    0.00000000    0.00000000
     atom   12 type  1   force =     0.00000000    0.00000000    0.00000000
     atom   13 type  1   force =     0.00000000    0.00000000    0.00000000
     atom   14 type  1   force =     0.00000000    0.00000000    0.00000000
     atom   15 type  1   force =     0.00000000    0.00000000    0.00000000
     atom   16 type  1   force =     0.00000000    0.00000000    0.00000000
     atom   17 type  1   force =     0.00000000    0.00000000    0.00000000
     atom   18 type  1   force =     0.00000000    0.00000000    0.00000000
     atom   19 type  1   force =     0.00000000    0.00000000    0.00000000
     atom   20 type  1   force =     0.00000000    0.00000000    0.00000000
     atom   21 type  1   force =     0.00000000    0.00000000    0.00000000
     atom   22 type  1   force =     0.00000000    0.00000000    0.00000000
     atom   23 type  1   force =     0.00000000    0.00000000    0.00000000
     atom   24 type  1   force =     0.00000000    0.00000000    0.00000000
     atom   25 type  1   force =     0.00000000    0.00000000    0.00000000
     atom   26 type  1   force =     0.00000000    0.00000000    0.00000000
     atom   27 type  1   force =     0.00000000    0.00000000    0.00000000
     atom   28 type  1   force =     0.00000000    0.00000000    0.00000000
     atom   29 type  1   force =     0.00000000    0.00000000    0.00000000
     atom   30 type  1   force =     0.00000000    0.00000000    0.00000000
     atom   31 type  1   force =     0.00000000    0.00000000    0.00000000
     atom   32 type  1   force =     0.00000000    0.00000000    0.00000000
     atom   33 type  1   force =     0.00000000    0.00000000    0.00000000
     atom   34 type  1   force =     0.00000000    0.00000000    0.00000000
     atom   35 type  1   force =     0.00000000    0.00000000    0.00000000
     atom   36 type  1   force =     0.00000000    0.00000000    0.00000000
     atom   37 type  1   force =     0.00000000    0.00000000    0.00000000
     atom   38 type  1   force =     0.00000000    0.00000000    0.00000000
     atom   39 type  1   force =     0.00000000    0.00000000    0.00000000
     atom   40 type  1   force =     0.00000000    0.00000000    0.00000000
     atom   41 type  1   force =     0.00000000    0.00000000    0.00000000
     atom   42 type  1   force =     0.00000000    0.00000000    0.00000000
     atom   43 type  1   force =     0.00000000    0.00000000    0.00000000
     atom   44 type  1   force =     0.00000000    0.00000000    0.00000000
     atom   45 type  2   force =     0.00000000    0.00000000    0.00000000
     atom   46 type  2   force =     0.00000000    0.00000000    0.00000000
     atom   47 type  2   force =     0.00000000    0.00000000    0.00000000
     atom   48 type  2   force =     0.00000000    0.00000000    0.00000000
     atom   49 type  2   force =     0.00000000    0.00000000    0.00000000
     atom   50 type  2   force =     0.00000000    0.00000000    0.00000000
     atom   51 type  2   force =     0.00000000    0.00000000    0.00000000
     atom   52 type  2   force =     0.00000000    0.00000000    0.00000000
     atom   53 type  2   force =     0.00000000    0.00000000    0.00000000
     atom   54 type  2   force =     0.00000000    0.00000000    0.00000000
     atom   55 type  2   force =     0.00000000    0.00000000    0.00000000
     atom   56 type  2   force =     0.00000000    0.00000000    0.00000000
     atom   57 type  2   force =     0.00000000    0.00000000    0.00000000
     atom   58 type  2   force =     0.00000000    0.00000000    0.00000000
     atom   59 type  2   force =     0.00000000    0.00000000    0.00000000
     atom   60 type  2   force =     0.00000000    0.00000000    0.00000000
     atom   61 type  2   force =     0.00000000    0.00000000    0.00000000
     atom   62 type  2   force =     0.00000000    0.00000000    0.00000000
     atom   63 type  2   force =     0.00000000    0.00000000    0.00000000
     atom   64 type  2   force =     0.00000000    0.00000000    0.00000000
     atom   65 type  2   force =     0.00000000    0.00000000    0.00000000
     atom   66 type  2   force =     0.00000000    0.00000000    0.00000000
     The SCF correction term to forces
     atom    1 type  1   force =    -0.00000668    0.00000470   -0.00000942
     atom    2 type  1   force =    -0.00002470    0.00000240    0.00000596
     atom    3 type  1   force =     0.00000137   -0.00000265    0.00000912
     atom    4 type  1   force =     0.00000825   -0.00000385    0.00000803
     atom    5 type  1   force =     0.00000698   -0.00000693   -0.00000543
     atom    6 type  1   force =     0.00000551   -0.00000666   -0.00000382
     atom    7 type  1   force =    -0.00000412    0.00000137   -0.00000276
     atom    8 type  1   force =    -0.00001089    0.00001295   -0.00001905
     atom    9 type  1   force =     0.00000887   -0.00001520    0.00001063
     atom   10 type  1   force =    -0.00000330    0.00000170   -0.00000111
     atom   11 type  1   force =    -0.00001880    0.00000096    0.00003537
     atom   12 type  1   force =    -0.00003309   -0.00002548   -0.00000274
     atom   13 type  1   force =     0.00001620   -0.00000591   -0.00000777
     atom   14 type  1   force =     0.00001295   -0.00001102   -0.00001171
     atom   15 type  1   force =     0.00001582    0.00000645    0.00000450
     atom   16 type  1   force =     0.00000123    0.00000197   -0.00001599
     atom   17 type  1   force =    -0.00000076    0.00000581   -0.00000592
     atom   18 type  1   force =    -0.00000629   -0.00000568   -0.00001166
     atom   19 type  1   force =     0.00002881   -0.00002423   -0.00001033
     atom   20 type  1   force =    -0.00001734   -0.00004293   -0.00001374
     atom   21 type  1   force =     0.00001332    0.00000865   -0.00000356
     atom   22 type  1   force =     0.00000733    0.00001049   -0.00000395
     atom   23 type  1   force =    -0.00002178    0.00000597    0.00001176
     atom   24 type  1   force =    -0.00002051    0.00000427   -0.00000104
     atom   25 type  1   force =     0.00003838   -0.00000097    0.00002045
     atom   26 type  1   force =     0.00002177   -0.00002356   -0.00001385
     atom   27 type  1   force =    -0.00004338    0.00001413   -0.00005452
     atom   28 type  1   force =    -0.00003485    0.00007038    0.00003086
     atom   29 type  1   force =     0.00000523   -0.00001002    0.00001782
     atom   30 type  1   force =    -0.00001073    0.00003328    0.00000931
     atom   31 type  1   force =    -0.00003030    0.00002105   -0.00000474
     atom   32 type  1   force =    -0.00000234    0.00005014    0.00001902
     atom   33 type  1   force =    -0.00000869    0.00000669   -0.00001231
     atom   34 type  1   force =    -0.00000770    0.00001120    0.00000816
     atom   35 type  1   force =    -0.00000619   -0.00000915    0.00001964
     atom   36 type  1   force =     0.00000001   -0.00001132    0.00002172
     atom   37 type  1   force =     0.00001418   -0.00001736    0.00001109
     atom   38 type  1   force =    -0.00000902   -0.00000360    0.00003239
     atom   39 type  1   force =     0.00002018   -0.00000442   -0.00003042
     atom   40 type  1   force =     0.00000338   -0.00002997    0.00000990
     atom   41 type  1   force =     0.00001579   -0.00000980    0.00001022
     atom   42 type  1   force =     0.00000251    0.00001621    0.00001641
     atom   43 type  1   force =    -0.00000458    0.00000138   -0.00001297
     atom   44 type  1   force =     0.00000513   -0.00000128   -0.00000719
     atom   45 type  2   force =    -0.00013135    0.00000269    0.00000333
     atom   46 type  2   force =     0.00004884   -0.00009037    0.00017090
     atom   47 type  2   force =     0.00012704   -0.00010717   -0.00010440
     atom   48 type  2   force =    -0.00007160   -0.00001533    0.00002170
     atom   49 type  2   force =    -0.00004814    0.00003693   -0.00005367
     atom   50 type  2   force =    -0.00015707   -0.00007247    0.00010985
     atom   51 type  2   force =     0.00019315   -0.00004424   -0.00015884
     atom   52 type  2   force =     0.00012393    0.00006267   -0.00005018
     atom   53 type  2   force =    -0.00002484   -0.00004537    0.00004715
     atom   54 type  2   force =     0.00003238   -0.00020932   -0.00004918
     atom   55 type  2   force =     0.00015914    0.00004708   -0.00001611
     atom   56 type  2   force =    -0.00024884    0.00007990    0.00001007
     atom   57 type  2   force =     0.00025351   -0.00003553    0.00008707
     atom   58 type  2   force =    -0.00017079    0.00018789   -0.00002212
     atom   59 type  2   force =    -0.00000791    0.00003480    0.00013842
     atom   60 type  2   force =    -0.00013437    0.00029792    0.00004496
     atom   61 type  2   force =    -0.00006425    0.00014102   -0.00010596
     atom   62 type  2   force =    -0.00011134   -0.00012342    0.00022075
     atom   63 type  2   force =     0.00004074   -0.00009589    0.00014561
     atom   64 type  2   force =     0.00006288   -0.00010010   -0.00005474
     atom   65 type  2   force =     0.00007874    0.00003045    0.00014057
     atom   66 type  2   force =     0.00006411   -0.00012185   -0.00002630

     Total force =     0.566869     Total SCF correction =     0.000949


     Computing stress (Cartesian axis) and pressure


     negative rho (up, down):  4.918E-01 0.000E+00
          total   stress  (Ry/bohr**3)                   (kbar)     P=       -2.92
  -0.00001945   0.00000059   0.00000043           -2.86        0.09        0.06
   0.00000059  -0.00002050   0.00000013            0.09       -3.02        0.02
   0.00000043   0.00000013  -0.00001961            0.06        0.02       -2.88


     init_run     :      8.54s CPU      9.05s WALL (       1 calls)
     electrons    :     83.96s CPU     89.99s WALL (       1 calls)
     forces       :      5.58s CPU      5.91s WALL (       1 calls)
     stress       :     16.60s CPU     16.96s WALL (       1 calls)

     Called by init_run:
     wfcinit      :      3.53s CPU      3.77s WALL (       1 calls)
     potinit      :      1.30s CPU      1.37s WALL (       1 calls)
     hinit0       :      1.02s CPU      1.06s WALL (       1 calls)

     Called by electrons:
     c_bands      :     56.26s CPU     59.48s WALL (      10 calls)
     sum_band     :     16.00s CPU     17.30s WALL (      10 calls)
     v_of_rho     :      6.89s CPU      7.46s WALL (      11 calls)
     newd         :      3.40s CPU      4.40s WALL (      11 calls)
     PAW_pot      :      1.00s CPU      1.00s WALL (      11 calls)
     mix_rho      :      1.21s CPU      1.30s WALL (      10 calls)

     Called by c_bands:
     init_us_2    :      0.83s CPU      0.85s WALL (      21 calls)
     init_us_2:cp :      0.83s CPU      0.85s WALL (      21 calls)
     regterg      :     55.27s CPU     58.49s WALL (      10 calls)

     Called by *egterg:
     rdiaghg      :      0.22s CPU      0.23s WALL (      31 calls)
     h_psi        :     50.29s CPU     53.12s WALL (      32 calls)
     s_psi        :      1.37s CPU      1.38s WALL (      32 calls)
     g_psi        :      0.16s CPU      0.16s WALL (      21 calls)

     Called by h_psi:
     h_psi:calbec :      1.24s CPU      1.25s WALL (      32 calls)
     vloc_psi     :     47.22s CPU     50.02s WALL (      32 calls)
     add_vuspsi   :      1.36s CPU      1.37s WALL (      32 calls)

     General routines
     calbec       :      1.83s CPU      1.85s WALL (      47 calls)
     fft          :      4.02s CPU      4.57s WALL (     119 calls)
     ffts         :      0.29s CPU      0.31s WALL (      10 calls)
     fftw         :     40.49s CPU     43.60s WALL (    2898 calls)

     Parallel routines

     PWSCF        :   1m54.85s CPU   2m 2.14s WALL


   This run was terminated on:   7:47: 0  27Mar2024            

=------------------------------------------------------------------------------=
   JOB DONE.
=------------------------------------------------------------------------------=
