
     Program PWSCF v.7.2 starts on 27Mar2024 at 13:21:24 

     This program is part of the open-source Quantum ESPRESSO suite
     for quantum simulation of materials; please cite
         "P. Giannozzi et al., J. Phys.:Condens. Matter 21 395502 (2009);
         "P. Giannozzi et al., J. Phys.:Condens. Matter 29 465901 (2017);
         "P. Giannozzi et al., J. Chem. Phys. 152 154105 (2020);
          URL http://www.quantum-espresso.org", 
     in publications or presentations arising from this work. More details at
     http://www.quantum-espresso.org/quote

     Parallel version (MPI), running on    32 processors

     MPI processes distributed on     1 nodes
     170038 MiB available memory on the printing compute node when the environment starts

     Reading input from pw-wt-317.in
Warning: card &CELL ignored
Warning: card / ignored

     Current dimensions of program PWSCF are:
     Max number of different atomic species (ntypx) = 10
     Max number of k-points (npk) =  40000
     Max angular momentum in pseudopotentials (lmaxx) =  4
     file O.pbe-n-kjpaw_psl.0.1.UPF: wavefunction(s)  2P renormalized

     IMPORTANT: XC functional enforced from input :
     Exchange-correlation= PBE
                           (   1   4   3   4   0   0   0)
     Any further DFT definition will be discarded
     Please, verify this is what you really want


     gamma-point specific algorithms are used

     R & G space division:  proc/nbgrp/npool/nimage =      32
     Subspace diagonalization in iterative solution of the eigenvalue problem:
     a serial algorithm will be used


     Parallelization info
     --------------------
     sticks:   dense  smooth     PW     G-vecs:    dense   smooth      PW
     Min        1707    1707    426               301015   301015   37634
     Max        1710    1710    428               301034   301034   37648
     Sum       54693   54693  13673              9632757  9632757 1204469

     Using Slab Decomposition



     bravais-lattice index     =            0
     lattice parameter (alat)  =      75.7119  a.u.
     unit-cell volume          =  434002.3113 (a.u.)^3
     number of atoms/cell      =           66
     number of atomic types    =            2
     number of electrons       =       176.00
     number of Kohn-Sham states=           88
     kinetic-energy cutoff     =      30.0000  Ry
     charge density cutoff     =     120.0000  Ry
     scf convergence threshold =      1.0E-06
     mixing beta               =       0.5000
     number of iterations used =            8  plain     mixing
     Exchange-correlation= PBE
                           (   1   4   3   4   0   0   0)

     celldm(1)=  75.711877  celldm(2)=   0.000000  celldm(3)=   0.000000
     celldm(4)=   0.000000  celldm(5)=   0.000000  celldm(6)=   0.000000

     crystal axes: (cart. coord. in units of alat)
               a(1) = (   1.000000   0.000000   0.000000 )  
               a(2) = (   0.000000   1.000000   0.000000 )  
               a(3) = (   0.000000   0.000000   1.000000 )  

     reciprocal axes: (cart. coord. in units 2 pi/alat)
               b(1) = (  1.000000  0.000000  0.000000 )  
               b(2) = (  0.000000  1.000000  0.000000 )  
               b(3) = (  0.000000  0.000000  1.000000 )  


     PseudoPot. # 1 for H  read from file:
     /share/pfaendtnergroup/rverma7/QE_PP/H.pbe-rrkjus_psl.1.0.0.UPF
     MD5 check sum: f52b6d4d1c606e5624b1dc7b2218f220
     Pseudo is Ultrasoft, Zval =  1.0
     Generated using "atomic" code by A. Dal Corso  v.5.1
     Using radial grid of  929 points,  2 beta functions with: 
                l(1) =   0
                l(2) =   0
     Q(r) pseudized with 0 coefficients 


     PseudoPot. # 2 for O  read from file:
     /share/pfaendtnergroup/rverma7/QE_PP/O.pbe-n-kjpaw_psl.0.1.UPF
     MD5 check sum: 0234752ac141de4415c5fc33072bef88
     Pseudo is Projector augmented-wave + core cor, Zval =  6.0
     Generated using "atomic" code by A. Dal Corso  v.5.0.99 svn rev. 10869
     Shape of augmentation charge: BESSEL
     Using radial grid of 1095 points,  4 beta functions with: 
                l(1) =   0
                l(2) =   0
                l(3) =   1
                l(4) =   1
     Q(r) pseudized with 0 coefficients 


     atomic species   valence    mass     pseudopotential
        H              1.00     1.00800     H ( 1.00)
        O              6.00    15.99900     O ( 1.00)

     No symmetry found



   Cartesian axes

     site n.     atom                  positions (alat units)
         1           H   tau(   1) = (   0.1684513   0.2799700   0.4010733  )
         2           H   tau(   2) = (   0.1979783   0.2540372   0.3986023  )
         3           H   tau(   3) = (   0.2876576   0.2791713   0.3635343  )
         4           H   tau(   4) = (   0.3059528   0.2796206   0.3995258  )
         5           H   tau(   5) = (   0.3833271   0.2241857   0.3367029  )
         6           H   tau(   6) = (   0.3976538   0.2416074   0.3689754  )
         7           H   tau(   7) = (   0.3012854   0.1464370   0.3699239  )
         8           H   tau(   8) = (   0.2684637   0.1394484   0.3478597  )
         9           H   tau(   9) = (   0.2911020   0.2622988   0.4930987  )
        10           H   tau(  10) = (   0.2810183   0.2936478   0.4678897  )
        11           H   tau(  11) = (   0.4027955   0.3527767   0.4129789  )
        12           H   tau(  12) = (   0.3841508   0.3249719   0.4337701  )
        13           H   tau(  13) = (   0.2152253   0.2537377   0.4506427  )
        14           H   tau(  14) = (   0.2278048   0.2157494   0.4427555  )
        15           H   tau(  15) = (   0.4394359   0.2857856   0.3741670  )
        16           H   tau(  16) = (   0.4046674   0.2957694   0.3854986  )
        17           H   tau(  17) = (   0.4029702   0.4058155   0.3720953  )
        18           H   tau(  18) = (   0.4347435   0.4053912   0.3970049  )
        19           H   tau(  19) = (   0.2974916   0.2227131   0.3395732  )
        20           H   tau(  20) = (   0.3175090   0.2449270   0.3131661  )
        21           H   tau(  21) = (   0.2608761   0.3047797   0.4185449  )
        22           H   tau(  22) = (   0.2237863   0.3020841   0.4271309  )
        23           H   tau(  23) = (   0.2697616   0.1917384   0.4266816  )
        24           H   tau(  24) = (   0.2520654   0.1626108   0.3999750  )
        25           H   tau(  25) = (   0.3542993   0.2156246   0.2579558  )
        26           H   tau(  26) = (   0.3266442   0.2017971   0.2836890  )
        27           H   tau(  27) = (   0.3384001   0.2974167   0.4731062  )
        28           H   tau(  28) = (   0.3650069   0.3231998   0.4850119  )
        29           H   tau(  29) = (   0.3085236   0.1987520   0.3854736  )
        30           H   tau(  30) = (   0.3440160   0.2020217   0.3665044  )
        31           H   tau(  31) = (   0.1761887   0.1980781   0.4087608  )
        32           H   tau(  32) = (   0.2140771   0.2009734   0.3933608  )
        33           H   tau(  33) = (   0.3612380   0.2732560   0.4308748  )
        34           H   tau(  34) = (   0.3580182   0.2530388   0.3964058  )
        35           H   tau(  35) = (   0.1902908   0.2185199   0.3409959  )
        36           H   tau(  36) = (   0.2099089   0.2521153   0.3339324  )
        37           H   tau(  37) = (   0.2643454   0.2055410   0.5237489  )
        38           H   tau(  38) = (   0.2494197   0.2274304   0.4927243  )
        39           H   tau(  39) = (   0.2767253   0.1730688   0.2998128  )
        40           H   tau(  40) = (   0.3062523   0.1805566   0.3260951  )
        41           H   tau(  41) = (   0.3175839   0.2314239   0.4383127  )
        42           H   tau(  42) = (   0.2995632   0.2106826   0.4674154  )
        43           H   tau(  43) = (   0.2341445   0.2040684   0.3049045  )
        44           H   tau(  44) = (   0.2213403   0.1768127   0.2781231  )
        45           O   tau(  45) = (   0.1910396   0.2745538   0.4121303  )
        46           O   tau(  46) = (   0.2869837   0.2904530   0.3850992  )
        47           O   tau(  47) = (   0.3805316   0.2248596   0.3610134  )
        48           O   tau(  48) = (   0.2763010   0.1386747   0.3707725  )
        49           O   tau(  49) = (   0.3009859   0.2823412   0.4814676  )
        50           O   tau(  50) = (   0.4021715   0.3269687   0.4168476  )
        51           O   tau(  51) = (   0.2261825   0.2336453   0.4598028  )
        52           O   tau(  52) = (   0.4157993   0.2769250   0.3724448  )
        53           O   tau(  53) = (   0.4129040   0.3954823   0.3922127  )
        54           O   tau(  54) = (   0.2944465   0.2427056   0.3239486  )
        55           O   tau(  55) = (   0.2452515   0.3059778   0.4393610  )
        56           O   tau(  56) = (   0.2479471   0.1833521   0.4154000  )
        57           O   tau(  57) = (   0.3477349   0.2168726   0.2823662  )
        58           O   tau(  58) = (   0.3591414   0.3092225   0.4662174  )
        59           O   tau(  59) = (   0.3206290   0.1914140   0.3658555  )
        60           O   tau(  60) = (   0.1902908   0.2107076   0.3936353  )
        61           O   tau(  61) = (   0.3442156   0.2626232   0.4158742  )
        62           O   tau(  62) = (   0.2012729   0.2318982   0.3227006  )
        63           O   tau(  63) = (   0.2725571   0.2177212   0.5039311  )
        64           O   tau(  64) = (   0.3017846   0.1710470   0.3028079  )
        65           O   tau(  65) = (   0.3075502   0.2092849   0.4433545  )
        66           O   tau(  66) = (   0.2379883   0.1800324   0.2972420  )

     number of k points=     1
                       cart. coord. in units 2pi/alat
        k(    1) = (   0.0000000   0.0000000   0.0000000), wk =   2.0000000

     Dense  grid:  4816379 G-vectors     FFT dimensions: ( 270, 270, 270)

     Estimated max dynamical RAM per process >     612.29 MB

     Estimated total dynamical RAM >      19.13 GB

     Check: negative core charge=   -0.000006

     Initial potential from superposition of free atoms

     starting charge     175.9995, renormalised to     176.0000

     negative rho (up, down):  3.792E-01 0.000E+00
     Starting wfcs are  132 randomized atomic wfcs
     Checking if some PAW data can be deallocated... 

     total cpu time spent up to now is       10.3 secs

     Self-consistent Calculation

     iteration #  1     ecut=    30.00 Ry     beta= 0.50
     Davidson diagonalization with overlap
     ethr =  1.00E-02,  avg # of iterations =  2.0

     negative rho (up, down):  4.508E-01 0.000E+00

     total cpu time spent up to now is       19.9 secs

     total energy              =    -965.76193109 Ry
     estimated scf accuracy    <       6.98512602 Ry

     iteration #  2     ecut=    30.00 Ry     beta= 0.50
     Davidson diagonalization with overlap
     ethr =  3.97E-03,  avg # of iterations =  2.0

     negative rho (up, down):  4.727E-01 0.000E+00

     total cpu time spent up to now is       29.3 secs

     total energy              =    -967.72387515 Ry
     estimated scf accuracy    <       1.01820376 Ry

     iteration #  3     ecut=    30.00 Ry     beta= 0.50
     Davidson diagonalization with overlap
     ethr =  5.79E-04,  avg # of iterations =  2.0

     negative rho (up, down):  5.211E-01 0.000E+00

     total cpu time spent up to now is       37.8 secs

     total energy              =    -967.77590147 Ry
     estimated scf accuracy    <       0.13341511 Ry

     iteration #  4     ecut=    30.00 Ry     beta= 0.50
     Davidson diagonalization with overlap
     ethr =  7.58E-05,  avg # of iterations =  3.0

     negative rho (up, down):  5.203E-01 0.000E+00

     total cpu time spent up to now is       47.6 secs

     total energy              =    -967.80019989 Ry
     estimated scf accuracy    <       0.04447710 Ry

     iteration #  5     ecut=    30.00 Ry     beta= 0.50
     Davidson diagonalization with overlap
     ethr =  2.53E-05,  avg # of iterations =  2.0

     negative rho (up, down):  5.192E-01 0.000E+00

     total cpu time spent up to now is       55.5 secs

     total energy              =    -967.80106464 Ry
     estimated scf accuracy    <       0.00796329 Ry

     iteration #  6     ecut=    30.00 Ry     beta= 0.50
     Davidson diagonalization with overlap
     ethr =  4.52E-06,  avg # of iterations =  2.0

     negative rho (up, down):  5.184E-01 0.000E+00

     total cpu time spent up to now is       63.7 secs

     total energy              =    -967.80116726 Ry
     estimated scf accuracy    <       0.00174493 Ry

     iteration #  7     ecut=    30.00 Ry     beta= 0.50
     Davidson diagonalization with overlap
     ethr =  9.91E-07,  avg # of iterations =  2.0

     negative rho (up, down):  5.180E-01 0.000E+00

     total cpu time spent up to now is       72.7 secs

     total energy              =    -967.80143912 Ry
     estimated scf accuracy    <       0.00010024 Ry

     iteration #  8     ecut=    30.00 Ry     beta= 0.50
     Davidson diagonalization with overlap
     ethr =  5.70E-08,  avg # of iterations =  3.0

     negative rho (up, down):  5.181E-01 0.000E+00

     total cpu time spent up to now is       82.6 secs

     total energy              =    -967.80147863 Ry
     estimated scf accuracy    <       0.00002073 Ry

     iteration #  9     ecut=    30.00 Ry     beta= 0.50
     Davidson diagonalization with overlap
     ethr =  1.18E-08,  avg # of iterations =  2.0

     negative rho (up, down):  5.181E-01 0.000E+00

     total cpu time spent up to now is       90.3 secs

     total energy              =    -967.80147534 Ry
     estimated scf accuracy    <       0.00001057 Ry

     iteration # 10     ecut=    30.00 Ry     beta= 0.50
     Davidson diagonalization with overlap
     ethr =  6.01E-09,  avg # of iterations =  2.0

     negative rho (up, down):  5.182E-01 0.000E+00

     total cpu time spent up to now is       99.2 secs

     End of self-consistent calculation

          k = 0.0000 0.0000 0.0000 (602235 PWs)   bands (ev):

   -26.0886 -25.8652 -25.8375 -25.5619 -25.5504 -25.4301 -25.2605 -25.2517
   -25.1387 -25.0870 -25.0211 -24.9722 -24.6810 -24.5554 -24.5435 -24.4236
   -24.2736 -24.2654 -24.1847 -24.0791 -23.8626 -23.7927 -14.1010 -13.8503
   -13.8043 -13.5449 -13.3926 -13.2061 -13.1843 -12.9657 -12.9437 -12.9155
   -12.7511 -12.7062 -12.5274 -12.5087 -12.4242 -12.3234 -12.2427 -12.2270
   -12.1983 -12.0226 -11.6080 -11.4818 -10.9732 -10.7452 -10.7036 -10.4243
   -10.3230  -9.9995  -9.8712  -9.7696  -9.7331  -9.5710  -9.4599  -9.2337
    -9.1275  -9.0317  -8.9355  -8.8613  -8.7636  -8.6043  -8.4564  -8.2665
    -8.1196  -8.0703  -8.0447  -7.9494  -7.7506  -7.6869  -7.5913  -7.5330
    -7.4350  -7.3719  -7.3317  -7.3116  -7.2580  -7.2375  -7.0994  -6.9706
    -6.9613  -6.8243  -6.7993  -6.7184  -6.5804  -6.5049  -6.1892  -6.0775

     highest occupied level (ev):    -6.0775

!    total energy              =    -967.80147654 Ry
     estimated scf accuracy    <       0.00000052 Ry

     The total energy is the sum of the following terms:
     one-electron contribution =   -5734.56496580 Ry
     hartree contribution      =    2902.46369715 Ry
     xc contribution           =    -193.72524836 Ry
     ewald contribution        =    2267.33481765 Ry
     one-center paw contrib.   =    -209.30977719 Ry

     convergence has been achieved in  10 iterations

     negative rho (up, down):  5.182E-01 0.000E+00

     Forces acting on atoms (cartesian axes, Ry/au):

     atom    1 type  1   force =     0.06679781   -0.01031066    0.04013329
     atom    2 type  1   force =    -0.02115929    0.02193106    0.03529201
     atom    3 type  1   force =     0.00465663   -0.01551624   -0.01856085
     atom    4 type  1   force =    -0.04596479    0.03365275   -0.05374637
     atom    5 type  1   force =    -0.00548753    0.00349210   -0.00442273
     atom    6 type  1   force =     0.00018730   -0.00280592   -0.01064859
     atom    7 type  1   force =    -0.08846242   -0.01834128   -0.00506634
     atom    8 type  1   force =     0.00396521    0.00179421   -0.02123376
     atom    9 type  1   force =     0.01202083    0.02803101   -0.01546791
     atom   10 type  1   force =     0.05870293   -0.05054295    0.05115503
     atom   11 type  1   force =     0.00466326   -0.08092028   -0.00639241
     atom   12 type  1   force =    -0.00368959   -0.01503628    0.00161368
     atom   13 type  1   force =     0.00645587   -0.01319352   -0.00427496
     atom   14 type  1   force =    -0.00415700    0.01372153    0.00446484
     atom   15 type  1   force =    -0.04348540   -0.03564270   -0.00788017
     atom   16 type  1   force =     0.00233705   -0.01377799   -0.00395418
     atom   17 type  1   force =     0.02122262   -0.00330866    0.01921242
     atom   18 type  1   force =    -0.00858868    0.00659852   -0.01432982
     atom   19 type  1   force =     0.00476248    0.04962991   -0.03390249
     atom   20 type  1   force =    -0.05340691   -0.01017158    0.01725521
     atom   21 type  1   force =    -0.03114600   -0.00180547    0.04698849
     atom   22 type  1   force =     0.00863260   -0.00194082    0.02244284
     atom   23 type  1   force =    -0.02546903   -0.02123820   -0.03528401
     atom   24 type  1   force =     0.02438353    0.05374013    0.04213078
     atom   25 type  1   force =    -0.01382261    0.00593203    0.05727607
     atom   26 type  1   force =     0.03759506    0.00968713    0.00565796
     atom   27 type  1   force =    -0.02829687   -0.00576578    0.00605521
     atom   28 type  1   force =     0.00612534    0.00642145    0.01612113
     atom   29 type  1   force =    -0.00306320    0.00739508    0.02928735
     atom   30 type  1   force =    -0.03053939   -0.00973026    0.00687849
     atom   31 type  1   force =     0.00660926   -0.01084304    0.01032821
     atom   32 type  1   force =    -0.03859753   -0.00026013    0.02980782
     atom   33 type  1   force =    -0.02651613   -0.00668424   -0.01427603
     atom   34 type  1   force =    -0.03965670    0.02003896    0.04430611
     atom   35 type  1   force =     0.01904760    0.02477124   -0.01835433
     atom   36 type  1   force =    -0.00549116   -0.01381783   -0.00623656
     atom   37 type  1   force =     0.01429171    0.00744276   -0.01099943
     atom   38 type  1   force =     0.08091103   -0.04005720    0.01279948
     atom   39 type  1   force =     0.02104826    0.00399367   -0.00820774
     atom   40 type  1   force =    -0.00557811   -0.02939911   -0.04851537
     atom   41 type  1   force =     0.00068905   -0.00413527   -0.00039015
     atom   42 type  1   force =     0.00748888   -0.00280797   -0.03377986
     atom   43 type  1   force =    -0.01076429   -0.03707146   -0.01131978
     atom   44 type  1   force =     0.04893678    0.01125201    0.05372472
     atom   45 type  2   force =    -0.06129880    0.00101060   -0.06784260
     atom   46 type  2   force =     0.04873397   -0.01562839    0.06897197
     atom   47 type  2   force =    -0.00611760   -0.01506441    0.00576448
     atom   48 type  2   force =     0.07002440    0.01031735    0.03054504
     atom   49 type  2   force =    -0.08440974    0.02093798   -0.03307650
     atom   50 type  2   force =     0.00043500    0.09630409   -0.01168221
     atom   51 type  2   force =    -0.00623054   -0.00538119    0.02092588
     atom   52 type  2   force =     0.05227075    0.06584744    0.02183133
     atom   53 type  2   force =    -0.01325245   -0.00713502   -0.00044817
     atom   54 type  2   force =     0.04232730   -0.01482700    0.01919636
     atom   55 type  2   force =     0.03848390    0.00809212   -0.06979927
     atom   56 type  2   force =     0.02289206   -0.02457942   -0.01512765
     atom   57 type  2   force =    -0.02005281   -0.01921089   -0.05252092
     atom   58 type  2   force =     0.01963748    0.00108641   -0.01518616
     atom   59 type  2   force =     0.04357742    0.00440157   -0.01826722
     atom   60 type  2   force =     0.03886983    0.00012480   -0.05311502
     atom   61 type  2   force =     0.05764166   -0.01929231   -0.03366654
     atom   62 type  2   force =    -0.00823460   -0.00465417    0.02871048
     atom   63 type  2   force =    -0.08828775    0.03625844   -0.01680200
     atom   64 type  2   force =     0.00829730    0.01129390    0.03581511
     atom   65 type  2   force =    -0.01998363   -0.00770824    0.02965002
     atom   66 type  2   force =    -0.06351163    0.02340558   -0.03956370
     The non-local contrib.  to forces
     atom    1 type  1   force =     0.07934534   -0.02056990    0.03731818
     atom    2 type  1   force =    -0.02619433    0.07517000    0.04729392
     atom    3 type  1   force =    -0.00139466    0.04979747    0.09975269
     atom    4 type  1   force =    -0.06043336    0.03236839   -0.04837540
     atom    5 type  1   force =    -0.01090437    0.00521710    0.10970393
     atom    6 type  1   force =    -0.06374456   -0.06146537   -0.03100427
     atom    7 type  1   force =    -0.08198378   -0.02462734    0.00014553
     atom    8 type  1   force =     0.03928486   -0.00214452    0.10705319
     atom    9 type  1   force =     0.03636896    0.07853365   -0.04652228
     atom   10 type  1   force =     0.05811682   -0.03502828    0.04072199
     atom   11 type  1   force =    -0.00376944   -0.08485310    0.01391919
     atom   12 type  1   force =     0.07484160    0.01055716   -0.07078090
     atom   13 type  1   force =     0.04723922   -0.08921618    0.03709528
     atom   14 type  1   force =    -0.00848017    0.07770144    0.06960485
     atom   15 type  1   force =    -0.08998156   -0.03331405   -0.00562116
     atom   16 type  1   force =     0.04111576   -0.06879017   -0.04746460
     atom   17 type  1   force =     0.04644818   -0.04155503    0.08562835
     atom   18 type  1   force =    -0.09832950   -0.04161881   -0.02527246
     atom   19 type  1   force =    -0.00860564    0.07119521   -0.05682458
     atom   20 type  1   force =    -0.08334367   -0.01006025    0.04166422
     atom   21 type  1   force =    -0.05193696    0.00368346    0.06785678
     atom   22 type  1   force =     0.08638682    0.01503856    0.04811493
     atom   23 type  1   force =    -0.07018045   -0.02942785   -0.03914913
     atom   24 type  1   force =    -0.01076249    0.06612779    0.04955011
     atom   25 type  1   force =    -0.02657605    0.00360045    0.09146248
     atom   26 type  1   force =     0.06941870    0.04931642   -0.00675226
     atom   27 type  1   force =     0.08421708    0.04935936   -0.02613848
     atom   28 type  1   force =    -0.02919863   -0.06704977   -0.08766727
     atom   29 type  1   force =     0.05946023   -0.03289124   -0.09303749
     atom   30 type  1   force =    -0.08303948   -0.03544981   -0.00006327
     atom   31 type  1   force =     0.06881010    0.05702267   -0.06989659
     atom   32 type  1   force =    -0.08416856    0.03144994    0.00288111
     atom   33 type  1   force =    -0.06685510   -0.04388597   -0.06252693
     atom   34 type  1   force =    -0.04662426    0.03486519    0.07010704
     atom   35 type  1   force =     0.04425030    0.05492167   -0.07002881
     atom   36 type  1   force =    -0.03839241   -0.08814964   -0.04464784
     atom   37 type  1   force =     0.03353806    0.05256760   -0.08479499
     atom   38 type  1   force =     0.05472627   -0.02444491    0.02789111
     atom   39 type  1   force =     0.09075457   -0.00570328    0.01377364
     atom   40 type  1   force =    -0.01902376   -0.03260265   -0.08299057
     atom   41 type  1   force =    -0.04336752   -0.09136460    0.02303266
     atom   42 type  1   force =     0.03049886   -0.00250944   -0.09020259
     atom   43 type  1   force =     0.01291243   -0.08812598   -0.03010045
     atom   44 type  1   force =     0.05987674    0.01400794    0.06944786
     atom   45 type  2   force =    -1.04962014   -0.81739151   -1.64665711
     atom   46 type  2   force =     1.13063233   -1.54189026   -0.54718260
     atom   47 type  2   force =     1.01991060    0.95532726   -1.19045742
     atom   48 type  2   force =     0.95186102    0.71537850   -1.72495146
     atom   49 type  2   force =    -1.73507807   -0.63574243   -0.09706372
     atom   50 type  2   force =    -1.21234768    1.45734511    0.70577150
     atom   51 type  2   force =    -0.60120217    0.14140796   -1.65372313
     atom   52 type  2   force =     0.91184949    1.54291934    0.97194387
     atom   53 type  2   force =     0.98427622    1.57421195   -1.20828644
     atom   54 type  2   force =     1.79693746   -1.11671781    0.44744049
     atom   55 type  2   force =    -0.37514846   -0.38231987   -1.99002074
     atom   56 type  2   force =     1.44582107   -0.62000396   -0.33570805
     atom   57 type  2   force =    -0.81687686   -0.91072198   -1.69654724
     atom   58 type  2   force =    -0.73875839    0.33246249    1.74734719
     atom   59 type  2   force =     0.45658678    1.23628119    1.35191772
     atom   60 type  2   force =     0.43204380   -1.52236003    1.06334168
     atom   61 type  2   force =     2.01040846    0.05069702   -0.26859331
     atom   62 type  2   force =    -0.01922906    0.51708097    2.20200476
     atom   63 type  2   force =    -1.75184417   -0.32381753    0.87080797
     atom   64 type  2   force =    -1.21577998    0.89729872    1.29128349
     atom   65 type  2   force =    -0.08442886    1.57029744    1.11292415
     atom   66 type  2   force =    -1.25430968    1.30634451   -0.92552364
     The ionic contribution  to forces
     atom    1 type  1   force =    -4.94705852    1.92055428   -1.36835736
     atom    2 type  1   force =    -1.01019920   -0.98288866   -1.82037569
     atom    3 type  1   force =    -0.38638741    0.37597865   -3.98390349
     atom    4 type  1   force =     1.62201894    0.51794572    0.95541468
     atom    5 type  1   force =     2.40938575   -0.59990582   -4.47495791
     atom    6 type  1   force =     3.82240971    0.74301155    0.44870209
     atom    7 type  1   force =     3.22207582   -2.18971353    0.15247717
     atom    8 type  1   force =    -1.80899871   -2.54863332   -3.62402354
     atom    9 type  1   force =    -0.84471613   -1.51572642    3.83314610
     atom   10 type  1   force =    -2.03650955    2.69129579    0.57981802
     atom   11 type  1   force =     1.01664627    3.86165147   -0.07926995
     atom   12 type  1   force =    -0.80245782    1.34596739    2.40818345
     atom   13 type  1   force =    -3.12939157    2.85492981    0.70783049
     atom   14 type  1   force =    -1.42820809   -2.81173360   -0.46179431
     atom   15 type  1   force =     5.19909630    1.28542378   -0.37010639
     atom   16 type  1   force =     0.32589445    2.58271303    0.53385940
     atom   17 type  1   force =    -1.02959826    2.75403824   -3.30095925
     atom   18 type  1   force =     4.04867457    2.61354905    0.69219521
     atom   19 type  1   force =    -0.16923019   -1.49558362    0.54269960
     atom   20 type  1   force =     2.86303478    1.81218736   -2.98797265
     atom   21 type  1   force =     0.70283772    2.25622713   -1.80606232
     atom   22 type  1   force =    -3.77386159    1.93779842   -0.88872621
     atom   23 type  1   force =     1.65103896   -0.95350799    1.95937846
     atom   24 type  1   force =    -0.83940112   -4.12485757   -0.75407439
     atom   25 type  1   force =     1.91120267   -0.14600416   -5.12850573
     atom   26 type  1   force =    -1.10203297   -1.74542344   -2.51072152
     atom   27 type  1   force =    -1.16159178   -0.12529366    2.56164016
     atom   28 type  1   force =     1.84011226    3.32671681    4.49836526
     atom   29 type  1   force =    -1.02341558   -0.14765318    2.77825058
     atom   30 type  1   force =     3.72777106   -0.49117756   -0.00852133
     atom   31 type  1   force =    -4.52574294   -2.90233115    2.48126522
     atom   32 type  1   force =     0.55004967   -1.94155524   -0.57737359
     atom   33 type  1   force =     3.55075054    1.18426647    2.54777474
     atom   34 type  1   force =     2.67799257   -0.83151237   -1.82904058
     atom   35 type  1   force =    -3.49046942   -1.81927768    0.81599997
     atom   36 type  1   force =    -0.27851905    3.83377966   -0.00841857
     atom   37 type  1   force =    -1.34790566   -2.59682056    5.02010830
     atom   38 type  1   force =    -2.68731812    0.32023609    1.98685188
     atom   39 type  1   force =    -2.45541615   -1.39539356   -2.34197268
     atom   40 type  1   force =     0.96184893   -0.72754727    0.83669969
     atom   41 type  1   force =     2.00833477    1.71432365    0.68418012
     atom   42 type  1   force =     0.19987924   -1.38571973    4.25324490
     atom   43 type  1   force =    -1.33470673    2.28494670   -1.03446709
     atom   44 type  1   force =    -3.24019138   -1.39111058   -4.21344178
     atom   45 type  2   force =   -12.15039260    9.35867468    2.52130867
     atom   46 type  2   force =    -3.70918237   13.45100071   -4.46362130
     atom   47 type  2   force =    10.41485322   -6.40611335   -1.79882283
     atom   48 type  2   force =    -2.75160661  -17.38811465    2.68255300
     atom   49 type  2   force =     2.83023248    7.15600193   12.95429455
     atom   50 type  2   force =    10.75529038    5.32660598    0.70668960
     atom   51 type  2   force =    -9.38963520   -1.31288353   12.87058410
     atom   52 type  2   force =    11.64806574    0.05423047   -5.70727608
     atom   53 type  2   force =     2.62528296    6.69099004    0.31712613
     atom   54 type  2   force =    -4.58059273    9.01463152  -10.78976985
     atom   55 type  2   force =    -5.58956213   13.76192838    8.10560487
     atom   56 type  2   force =    -7.46975162  -10.10249045    4.59105100
     atom   57 type  2   force =     9.50063252    1.71475541  -10.75576617
     atom   58 type  2   force =     7.71455154    7.03952460    7.31430741
     atom   59 type  2   force =     5.90735957  -10.23686459   -2.10774310
     atom   60 type  2   force =   -14.87584820   -3.03119199   -2.57386116
     atom   61 type  2   force =     4.37625569    1.59567381    2.76763197
     atom   62 type  2   force =   -10.65048218    2.56687434  -12.03018711
     atom   63 type  2   force =     1.71094103   -4.92417190   14.50429184
     atom   64 type  2   force =     4.61838030  -12.22728592  -13.41933742
     atom   65 type  2   force =     5.90952033  -10.90928719    6.28731405
     atom   66 type  2   force =    -6.30203914   -8.54065870   -9.68141135
     The local contribution  to forces
     atom    1 type  1   force =     4.93451316   -1.91034564    1.37120715
     atom    2 type  1   force =     1.01520998    0.92963176    1.80841737
     atom    3 type  1   force =     0.39242527   -0.44136907    3.86557870
     atom    4 type  1   force =    -1.60755450   -0.51673220   -0.96075532
     atom    5 type  1   force =    -2.40398084    0.59813972    4.36080252
     atom    6 type  1   force =    -3.75847928   -0.68438437   -0.42831906
     atom    7 type  1   force =    -3.22857898    2.19595454   -0.15767323
     atom    8 type  1   force =     1.77365172    2.55253337    3.49574534
     atom    9 type  1   force =     0.82031636    1.46513489   -3.80205558
     atom   10 type  1   force =     2.03704230   -2.70685635   -0.56937696
     atom   11 type  1   force =    -1.00824683   -3.85771474    0.05897988
     atom   12 type  1   force =     0.72387505   -1.37158740   -2.33574779
     atom   13 type  1   force =     3.08856647   -2.77892691   -0.74921024
     atom   14 type  1   force =     1.43250537    2.74769634    0.39665028
     atom   15 type  1   force =    -5.15258112   -1.28777217    0.36787785
     atom   16 type  1   force =    -0.36470244   -2.52771819   -0.49031519
     atom   17 type  1   force =     1.00434873   -2.71583820    3.23456285
     atom   18 type  1   force =    -3.95895568   -2.56537907   -0.68123018
     atom   19 type  1   force =     0.18257303    1.47394587   -0.51973720
     atom   20 type  1   force =    -2.83309645   -1.81234151    2.96357711
     atom   21 type  1   force =    -0.68207138   -2.26177041    1.78519386
     atom   22 type  1   force =     3.69604606   -1.95484456    0.86304131
     atom   23 type  1   force =    -1.60633915    0.96165828   -1.95548788
     atom   24 type  1   force =     0.87453103    4.11240543    0.74665672
     atom   25 type  1   force =    -1.89846639    0.14828344    5.09429202
     atom   26 type  1   force =     1.07013923    1.70572161    2.52314956
     atom   27 type  1   force =     1.04905146    0.07012019   -2.52941003
     atom   28 type  1   force =    -1.80480688   -3.25327332   -4.39452949
     atom   29 type  1   force =     0.96084076    0.18790850   -2.65588393
     atom   30 type  1   force =    -3.67529105    0.51686418    0.01548991
     atom   31 type  1   force =     4.46351495    2.83440696   -2.40100073
     atom   32 type  1   force =    -0.50449018    1.90979514    0.60432509
     atom   33 type  1   force =    -3.51041141   -1.14710832   -2.49949393
     atom   34 type  1   force =    -2.67104067    0.81664078    1.80325028
     atom   35 type  1   force =     3.46524026    1.78907056   -0.76429260
     atom   36 type  1   force =     0.31140650   -3.75948056    0.04686242
     atom   37 type  1   force =     1.32863357    2.55164943   -4.94628998
     atom   38 type  1   force =     2.71349196   -0.33589342   -2.00191282
     atom   39 type  1   force =     2.38568974    1.40505120    2.32002197
     atom   40 type  1   force =    -0.94845266    0.73070348   -0.80221990
     atom   41 type  1   force =    -1.96429863   -1.62710455   -0.70757695
     atom   42 type  1   force =    -0.22293050    1.38539023   -4.19675877
     atom   43 type  1   force =     1.31101350   -2.23393865    1.05326599
     atom   44 type  1   force =     3.22922759    1.38831531    4.19773761
     atom   45 type  2   force =    13.12727850   -8.54732216   -0.95955480
     atom   46 type  2   force =     2.63851598  -11.93978181    5.07509961
     atom   47 type  2   force =   -11.43127981    5.44479720    2.98302836
     atom   48 type  2   force =     1.88025874   16.68943711   -0.94426552
     atom   49 type  2   force =    -1.19779244   -6.50543890  -12.89067292
     atom   50 type  2   force =    -9.55430768   -6.67294050   -1.41708428
     atom   51 type  2   force =     9.97787329    1.16689239  -11.21251049
     atom   52 type  2   force =   -12.49751553   -1.51481146    4.76661781
     atom   53 type  2   force =    -3.61279961   -8.25584214    0.87825556
     atom   54 type  2   force =     2.84451737   -7.92404855   10.36606817
     atom   55 type  2   force =     5.99914280  -13.37479891   -6.20539319
     atom   56 type  2   force =     6.06143170   10.69097872   -4.27459516
     atom   57 type  2   force =    -8.71087127   -0.83259905   12.38114407
     atom   58 type  2   force =    -6.96222058   -7.36694578   -9.05868316
     atom   59 type  2   force =    -6.31551916    9.01762693    0.75155364
     atom   60 type  2   force =    14.48712487    4.53819821    1.46767356
     atom   61 type  2   force =    -6.30874290   -1.66491370   -2.53588632
     atom   62 type  2   force =    10.66101573   -3.08363684    9.87829709
     atom   63 type  2   force =    -0.06548276    5.28119405  -15.38270423
     atom   64 type  2   force =    -3.40583714   11.35012772   12.17763897
     atom   65 type  2   force =    -5.84563938    9.34676823   -7.35911546
     atom   66 type  2   force =     7.47890207    7.27134442   10.55693535
     The core correction contribution to forces
     atom    1 type  1   force =     0.00000000    0.00000000    0.00000000
     atom    2 type  1   force =     0.00000000    0.00000000    0.00000000
     atom    3 type  1   force =     0.00000000    0.00000000    0.00000000
     atom    4 type  1   force =     0.00000000    0.00000000    0.00000000
     atom    5 type  1   force =     0.00000000    0.00000000    0.00000000
     atom    6 type  1   force =     0.00000000    0.00000000    0.00000000
     atom    7 type  1   force =     0.00000000    0.00000000    0.00000000
     atom    8 type  1   force =     0.00000000    0.00000000    0.00000000
     atom    9 type  1   force =     0.00000000    0.00000000    0.00000000
     atom   10 type  1   force =     0.00000000    0.00000000    0.00000000
     atom   11 type  1   force =     0.00000000    0.00000000    0.00000000
     atom   12 type  1   force =     0.00000000    0.00000000    0.00000000
     atom   13 type  1   force =     0.00000000    0.00000000    0.00000000
     atom   14 type  1   force =     0.00000000    0.00000000    0.00000000
     atom   15 type  1   force =     0.00000000    0.00000000    0.00000000
     atom   16 type  1   force =     0.00000000    0.00000000    0.00000000
     atom   17 type  1   force =     0.00000000    0.00000000    0.00000000
     atom   18 type  1   force =     0.00000000    0.00000000    0.00000000
     atom   19 type  1   force =     0.00000000    0.00000000    0.00000000
     atom   20 type  1   force =     0.00000000    0.00000000    0.00000000
     atom   21 type  1   force =     0.00000000    0.00000000    0.00000000
     atom   22 type  1   force =     0.00000000    0.00000000    0.00000000
     atom   23 type  1   force =     0.00000000    0.00000000    0.00000000
     atom   24 type  1   force =     0.00000000    0.00000000    0.00000000
     atom   25 type  1   force =     0.00000000    0.00000000    0.00000000
     atom   26 type  1   force =     0.00000000    0.00000000    0.00000000
     atom   27 type  1   force =     0.00000000    0.00000000    0.00000000
     atom   28 type  1   force =     0.00000000    0.00000000    0.00000000
     atom   29 type  1   force =     0.00000000    0.00000000    0.00000000
     atom   30 type  1   force =     0.00000000    0.00000000    0.00000000
     atom   31 type  1   force =     0.00000000    0.00000000    0.00000000
     atom   32 type  1   force =     0.00000000    0.00000000    0.00000000
     atom   33 type  1   force =     0.00000000    0.00000000    0.00000000
     atom   34 type  1   force =     0.00000000    0.00000000    0.00000000
     atom   35 type  1   force =     0.00000000    0.00000000    0.00000000
     atom   36 type  1   force =     0.00000000    0.00000000    0.00000000
     atom   37 type  1   force =     0.00000000    0.00000000    0.00000000
     atom   38 type  1   force =     0.00000000    0.00000000    0.00000000
     atom   39 type  1   force =     0.00000000    0.00000000    0.00000000
     atom   40 type  1   force =     0.00000000    0.00000000    0.00000000
     atom   41 type  1   force =     0.00000000    0.00000000    0.00000000
     atom   42 type  1   force =     0.00000000    0.00000000    0.00000000
     atom   43 type  1   force =     0.00000000    0.00000000    0.00000000
     atom   44 type  1   force =     0.00000000    0.00000000    0.00000000
     atom   45 type  2   force =     0.01141015    0.00698722    0.01706773
     atom   46 type  2   force =    -0.01111806    0.01478670    0.00460993
     atom   47 type  2   force =    -0.00949217   -0.00901416    0.01185355
     atom   48 type  2   force =    -0.01055955   -0.00637672    0.01710939
     atom   49 type  2   force =     0.01800477    0.00595436    0.00040300
     atom   50 type  2   force =     0.01162339   -0.01453766   -0.00694158
     atom   51 type  2   force =     0.00668197   -0.00084000    0.01642776
     atom   52 type  2   force =    -0.00999882   -0.01629764   -0.00930915
     atom   53 type  2   force =    -0.01001380   -0.01653686    0.01247654
     atom   54 type  2   force =    -0.01849382    0.01118018   -0.00445657
     atom   55 type  2   force =     0.00393872    0.00314502    0.01976471
     atom   56 type  2   force =    -0.01451656    0.00686307    0.00411097
     atom   57 type  2   force =     0.00696736    0.00923936    0.01851524
     atom   58 type  2   force =     0.00601745   -0.00391063   -0.01791267
     atom   59 type  2   force =    -0.00499290   -0.01258442   -0.01387195
     atom   60 type  2   force =    -0.00441471    0.01530865   -0.01008839
     atom   61 type  2   force =    -0.02016360   -0.00082028    0.00315493
     atom   62 type  2   force =     0.00047511   -0.00500884   -0.02131490
     atom   63 type  2   force =     0.01802726    0.00301112   -0.00916175
     atom   64 type  2   force =     0.01132635   -0.00882747   -0.01364742
     atom   65 type  2   force =     0.00051168   -0.01533516   -0.01129929
     atom   66 type  2   force =     0.01391240   -0.01354218    0.01045113
     The Hubbard contrib.    to forces
     atom    1 type  1   force =     0.00000000    0.00000000    0.00000000
     atom    2 type  1   force =     0.00000000    0.00000000    0.00000000
     atom    3 type  1   force =     0.00000000    0.00000000    0.00000000
     atom    4 type  1   force =     0.00000000    0.00000000    0.00000000
     atom    5 type  1   force =     0.00000000    0.00000000    0.00000000
     atom    6 type  1   force =     0.00000000    0.00000000    0.00000000
     atom    7 type  1   force =     0.00000000    0.00000000    0.00000000
     atom    8 type  1   force =     0.00000000    0.00000000    0.00000000
     atom    9 type  1   force =     0.00000000    0.00000000    0.00000000
     atom   10 type  1   force =     0.00000000    0.00000000    0.00000000
     atom   11 type  1   force =     0.00000000    0.00000000    0.00000000
     atom   12 type  1   force =     0.00000000    0.00000000    0.00000000
     atom   13 type  1   force =     0.00000000    0.00000000    0.00000000
     atom   14 type  1   force =     0.00000000    0.00000000    0.00000000
     atom   15 type  1   force =     0.00000000    0.00000000    0.00000000
     atom   16 type  1   force =     0.00000000    0.00000000    0.00000000
     atom   17 type  1   force =     0.00000000    0.00000000    0.00000000
     atom   18 type  1   force =     0.00000000    0.00000000    0.00000000
     atom   19 type  1   force =     0.00000000    0.00000000    0.00000000
     atom   20 type  1   force =     0.00000000    0.00000000    0.00000000
     atom   21 type  1   force =     0.00000000    0.00000000    0.00000000
     atom   22 type  1   force =     0.00000000    0.00000000    0.00000000
     atom   23 type  1   force =     0.00000000    0.00000000    0.00000000
     atom   24 type  1   force =     0.00000000    0.00000000    0.00000000
     atom   25 type  1   force =     0.00000000    0.00000000    0.00000000
     atom   26 type  1   force =     0.00000000    0.00000000    0.00000000
     atom   27 type  1   force =     0.00000000    0.00000000    0.00000000
     atom   28 type  1   force =     0.00000000    0.00000000    0.00000000
     atom   29 type  1   force =     0.00000000    0.00000000    0.00000000
     atom   30 type  1   force =     0.00000000    0.00000000    0.00000000
     atom   31 type  1   force =     0.00000000    0.00000000    0.00000000
     atom   32 type  1   force =     0.00000000    0.00000000    0.00000000
     atom   33 type  1   force =     0.00000000    0.00000000    0.00000000
     atom   34 type  1   force =     0.00000000    0.00000000    0.00000000
     atom   35 type  1   force =     0.00000000    0.00000000    0.00000000
     atom   36 type  1   force =     0.00000000    0.00000000    0.00000000
     atom   37 type  1   force =     0.00000000    0.00000000    0.00000000
     atom   38 type  1   force =     0.00000000    0.00000000    0.00000000
     atom   39 type  1   force =     0.00000000    0.00000000    0.00000000
     atom   40 type  1   force =     0.00000000    0.00000000    0.00000000
     atom   41 type  1   force =     0.00000000    0.00000000    0.00000000
     atom   42 type  1   force =     0.00000000    0.00000000    0.00000000
     atom   43 type  1   force =     0.00000000    0.00000000    0.00000000
     atom   44 type  1   force =     0.00000000    0.00000000    0.00000000
     atom   45 type  2   force =     0.00000000    0.00000000    0.00000000
     atom   46 type  2   force =     0.00000000    0.00000000    0.00000000
     atom   47 type  2   force =     0.00000000    0.00000000    0.00000000
     atom   48 type  2   force =     0.00000000    0.00000000    0.00000000
     atom   49 type  2   force =     0.00000000    0.00000000    0.00000000
     atom   50 type  2   force =     0.00000000    0.00000000    0.00000000
     atom   51 type  2   force =     0.00000000    0.00000000    0.00000000
     atom   52 type  2   force =     0.00000000    0.00000000    0.00000000
     atom   53 type  2   force =     0.00000000    0.00000000    0.00000000
     atom   54 type  2   force =     0.00000000    0.00000000    0.00000000
     atom   55 type  2   force =     0.00000000    0.00000000    0.00000000
     atom   56 type  2   force =     0.00000000    0.00000000    0.00000000
     atom   57 type  2   force =     0.00000000    0.00000000    0.00000000
     atom   58 type  2   force =     0.00000000    0.00000000    0.00000000
     atom   59 type  2   force =     0.00000000    0.00000000    0.00000000
     atom   60 type  2   force =     0.00000000    0.00000000    0.00000000
     atom   61 type  2   force =     0.00000000    0.00000000    0.00000000
     atom   62 type  2   force =     0.00000000    0.00000000    0.00000000
     atom   63 type  2   force =     0.00000000    0.00000000    0.00000000
     atom   64 type  2   force =     0.00000000    0.00000000    0.00000000
     atom   65 type  2   force =     0.00000000    0.00000000    0.00000000
     atom   66 type  2   force =     0.00000000    0.00000000    0.00000000
     The SCF correction term to forces
     atom    1 type  1   force =    -0.00002584    0.00000385   -0.00001333
     atom    2 type  1   force =     0.00000057   -0.00002880   -0.00002224
     atom    3 type  1   force =    -0.00001025    0.00002995    0.00003260
     atom    4 type  1   force =    -0.00001956    0.00002409   -0.00000897
     atom    5 type  1   force =    -0.00001176   -0.00000565    0.00005007
     atom    6 type  1   force =    -0.00002225   -0.00001448   -0.00000601
     atom    7 type  1   force =     0.00000083   -0.00000171    0.00000556
     atom    8 type  1   force =     0.00000365   -0.00000807    0.00001260
     atom    9 type  1   force =     0.00002797    0.00004213   -0.00001480
     atom   10 type  1   force =     0.00002968   -0.00000087    0.00001332
     atom   11 type  1   force =     0.00000958   -0.00005066   -0.00000018
     atom   12 type  1   force =     0.00002789   -0.00002019   -0.00001973
     atom   13 type  1   force =     0.00001806   -0.00002699    0.00003086
     atom   14 type  1   force =     0.00000221    0.00001060    0.00002537
     atom   15 type  1   force =    -0.00004270   -0.00002702   -0.00000912
     atom   16 type  1   force =     0.00000560   -0.00002942   -0.00001243
     atom   17 type  1   force =     0.00000028   -0.00000042    0.00000182
     atom   18 type  1   force =    -0.00000175    0.00000059   -0.00000104
     atom   19 type  1   force =     0.00000160    0.00002570   -0.00001895
     atom   20 type  1   force =    -0.00002526   -0.00000393    0.00000790
     atom   21 type  1   force =     0.00000094    0.00000759    0.00002151
     atom   22 type  1   force =     0.00003763    0.00002001    0.00003416
     atom   23 type  1   force =    -0.00001209   -0.00000740   -0.00000410
     atom   24 type  1   force =    -0.00000758    0.00001772    0.00001969
     atom   25 type  1   force =    -0.00000653    0.00000555    0.00004865
     atom   26 type  1   force =     0.00004641    0.00002578    0.00000354
     atom   27 type  1   force =     0.00000269    0.00000156   -0.00001509
     atom   28 type  1   force =    -0.00000511   -0.00001902   -0.00002602
     atom   29 type  1   force =     0.00002771   -0.00001575   -0.00002044
     atom   30 type  1   force =    -0.00000361   -0.00001383   -0.00000548
     atom   31 type  1   force =     0.00000346    0.00001173   -0.00001835
     atom   32 type  1   force =    -0.00001215    0.00000328   -0.00000344
     atom   33 type  1   force =    -0.00002384   -0.00000318   -0.00000856
     atom   34 type  1   force =    -0.00000804   -0.00000140    0.00001072
     atom   35 type  1   force =     0.00000278    0.00000994   -0.00001153
     atom   36 type  1   force =    -0.00000987   -0.00001405   -0.00001122
     atom   37 type  1   force =     0.00000204   -0.00000047   -0.00000141
     atom   38 type  1   force =    -0.00001277   -0.00000171   -0.00000933
     atom   39 type  1   force =    -0.00000358   -0.00000744   -0.00000932
     atom   40 type  1   force =     0.00002570    0.00000057    0.00001676
     atom   41 type  1   force =    -0.00000325   -0.00003652   -0.00000463
     atom   42 type  1   force =     0.00001759   -0.00001578   -0.00004205
     atom   43 type  1   force =    -0.00000718   -0.00000027    0.00000313
     atom   44 type  1   force =     0.00000015   -0.00000742    0.00000238
     atom   45 type  2   force =     0.00000161    0.00001561    0.00001426
     atom   46 type  2   force =    -0.00013759    0.00020951    0.00008767
     atom   47 type  2   force =    -0.00013313   -0.00010812    0.00018416
     atom   48 type  2   force =     0.00004711   -0.00005364    0.00012098
     atom   49 type  2   force =     0.00019983    0.00011627   -0.00001604
     atom   50 type  2   force =     0.00015291   -0.00021560   -0.00009609
     atom   51 type  2   force =     0.00002789   -0.00000476    0.00016900
     atom   52 type  2   force =    -0.00015382   -0.00024003   -0.00012378
     atom   53 type  2   force =    -0.00002191   -0.00000476    0.00000138
     atom   54 type  2   force =    -0.00006467    0.00008091   -0.00006452
     atom   55 type  2   force =     0.00008928    0.00009074    0.00026643
     atom   56 type  2   force =    -0.00011623    0.00002646    0.00003494
     atom   57 type  2   force =     0.00007176    0.00006862    0.00015453
     atom   58 type  2   force =     0.00002379   -0.00009102   -0.00022358
     atom   59 type  2   force =     0.00011945   -0.00010430   -0.00010218
     atom   60 type  2   force =    -0.00005961    0.00012321   -0.00015936
     atom   61 type  2   force =    -0.00013968    0.00002409    0.00004755
     atom   62 type  2   force =    -0.00003789   -0.00001055   -0.00006801
     atom   63 type  2   force =     0.00004721   -0.00000405   -0.00001447
     atom   64 type  2   force =     0.00018409   -0.00006590   -0.00010117
     atom   65 type  2   force =     0.00002892   -0.00019831   -0.00015207
     atom   66 type  2   force =    -0.00000098   -0.00012923    0.00000616

     Total force =     0.441887     Total SCF correction =     0.000953


     Computing stress (Cartesian axis) and pressure


     negative rho (up, down):  5.182E-01 0.000E+00
          total   stress  (Ry/bohr**3)                   (kbar)     P=       -2.83
  -0.00001983   0.00000015  -0.00000055           -2.92        0.02       -0.08
   0.00000015  -0.00001877   0.00000013            0.02       -2.76        0.02
  -0.00000055   0.00000013  -0.00001912           -0.08        0.02       -2.81


     init_run     :      9.18s CPU     10.15s WALL (       1 calls)
     electrons    :     83.51s CPU     88.89s WALL (       1 calls)
     forces       :      5.70s CPU      6.02s WALL (       1 calls)
     stress       :     16.82s CPU     17.21s WALL (       1 calls)

     Called by init_run:
     wfcinit      :      3.84s CPU      4.19s WALL (       1 calls)
     potinit      :      1.29s CPU      1.65s WALL (       1 calls)
     hinit0       :      1.30s CPU      1.39s WALL (       1 calls)

     Called by electrons:
     c_bands      :     55.76s CPU     58.48s WALL (      10 calls)
     sum_band     :     16.04s CPU     17.23s WALL (      10 calls)
     v_of_rho     :      6.81s CPU      7.52s WALL (      11 calls)
     newd         :      3.51s CPU      4.44s WALL (      11 calls)
     PAW_pot      :      1.03s CPU      1.03s WALL (      11 calls)
     mix_rho      :      1.21s CPU      1.31s WALL (      10 calls)

     Called by c_bands:
     init_us_2    :      0.82s CPU      0.84s WALL (      21 calls)
     init_us_2:cp :      0.82s CPU      0.84s WALL (      21 calls)
     regterg      :     54.78s CPU     57.50s WALL (      10 calls)

     Called by *egterg:
     rdiaghg      :      0.21s CPU      0.21s WALL (      32 calls)
     h_psi        :     50.09s CPU     52.46s WALL (      33 calls)
     s_psi        :      1.38s CPU      1.39s WALL (      33 calls)
     g_psi        :      0.16s CPU      0.16s WALL (      22 calls)

     Called by h_psi:
     h_psi:calbec :      1.18s CPU      1.19s WALL (      33 calls)
     vloc_psi     :     47.10s CPU     49.44s WALL (      33 calls)
     add_vuspsi   :      1.36s CPU      1.36s WALL (      33 calls)

     General routines
     calbec       :      1.83s CPU      1.84s WALL (      48 calls)
     fft          :      4.07s CPU      4.73s WALL (     119 calls)
     ffts         :      0.28s CPU      0.32s WALL (      10 calls)
     fftw         :     40.31s CPU     42.91s WALL (    2892 calls)

     Parallel routines

     PWSCF        :   1m55.35s CPU   2m 2.47s WALL


   This run was terminated on:  13:23:27  27Mar2024            

=------------------------------------------------------------------------------=
   JOB DONE.
=------------------------------------------------------------------------------=
