
     Program PWSCF v.7.2 starts on 27Mar2024 at 23: 1:19 

     This program is part of the open-source Quantum ESPRESSO suite
     for quantum simulation of materials; please cite
         "P. Giannozzi et al., J. Phys.:Condens. Matter 21 395502 (2009);
         "P. Giannozzi et al., J. Phys.:Condens. Matter 29 465901 (2017);
         "P. Giannozzi et al., J. Chem. Phys. 152 154105 (2020);
          URL http://www.quantum-espresso.org", 
     in publications or presentations arising from this work. More details at
     http://www.quantum-espresso.org/quote

     Parallel version (MPI), running on    32 processors

     MPI processes distributed on     1 nodes
     175107 MiB available memory on the printing compute node when the environment starts

     Reading input from pw-wt-414.in
Warning: card &CELL ignored
Warning: card / ignored

     Current dimensions of program PWSCF are:
     Max number of different atomic species (ntypx) = 10
     Max number of k-points (npk) =  40000
     Max angular momentum in pseudopotentials (lmaxx) =  4
     file O.pbe-n-kjpaw_psl.0.1.UPF: wavefunction(s)  2P renormalized

     IMPORTANT: XC functional enforced from input :
     Exchange-correlation= PBE
                           (   1   4   3   4   0   0   0)
     Any further DFT definition will be discarded
     Please, verify this is what you really want


     gamma-point specific algorithms are used

     R & G space division:  proc/nbgrp/npool/nimage =      32
     Subspace diagonalization in iterative solution of the eigenvalue problem:
     a serial algorithm will be used


     Parallelization info
     --------------------
     sticks:   dense  smooth     PW     G-vecs:    dense   smooth      PW
     Min        1707    1707    426               301015   301015   37634
     Max        1710    1710    428               301034   301034   37648
     Sum       54693   54693  13673              9632757  9632757 1204469

     Using Slab Decomposition



     bravais-lattice index     =            0
     lattice parameter (alat)  =      75.7119  a.u.
     unit-cell volume          =  434002.3113 (a.u.)^3
     number of atoms/cell      =           66
     number of atomic types    =            2
     number of electrons       =       176.00
     number of Kohn-Sham states=           88
     kinetic-energy cutoff     =      30.0000  Ry
     charge density cutoff     =     120.0000  Ry
     scf convergence threshold =      1.0E-06
     mixing beta               =       0.5000
     number of iterations used =            8  plain     mixing
     Exchange-correlation= PBE
                           (   1   4   3   4   0   0   0)

     celldm(1)=  75.711877  celldm(2)=   0.000000  celldm(3)=   0.000000
     celldm(4)=   0.000000  celldm(5)=   0.000000  celldm(6)=   0.000000

     crystal axes: (cart. coord. in units of alat)
               a(1) = (   1.000000   0.000000   0.000000 )  
               a(2) = (   0.000000   1.000000   0.000000 )  
               a(3) = (   0.000000   0.000000   1.000000 )  

     reciprocal axes: (cart. coord. in units 2 pi/alat)
               b(1) = (  1.000000  0.000000  0.000000 )  
               b(2) = (  0.000000  1.000000  0.000000 )  
               b(3) = (  0.000000  0.000000  1.000000 )  


     PseudoPot. # 1 for H  read from file:
     /share/pfaendtnergroup/rverma7/QE_PP/H.pbe-rrkjus_psl.1.0.0.UPF
     MD5 check sum: f52b6d4d1c606e5624b1dc7b2218f220
     Pseudo is Ultrasoft, Zval =  1.0
     Generated using "atomic" code by A. Dal Corso  v.5.1
     Using radial grid of  929 points,  2 beta functions with: 
                l(1) =   0
                l(2) =   0
     Q(r) pseudized with 0 coefficients 


     PseudoPot. # 2 for O  read from file:
     /share/pfaendtnergroup/rverma7/QE_PP/O.pbe-n-kjpaw_psl.0.1.UPF
     MD5 check sum: 0234752ac141de4415c5fc33072bef88
     Pseudo is Projector augmented-wave + core cor, Zval =  6.0
     Generated using "atomic" code by A. Dal Corso  v.5.0.99 svn rev. 10869
     Shape of augmentation charge: BESSEL
     Using radial grid of 1095 points,  4 beta functions with: 
                l(1) =   0
                l(2) =   0
                l(3) =   1
                l(4) =   1
     Q(r) pseudized with 0 coefficients 


     atomic species   valence    mass     pseudopotential
        H              1.00     1.00800     H ( 1.00)
        O              6.00    15.99900     O ( 1.00)

     No symmetry found



   Cartesian axes

     site n.     atom                  positions (alat units)
         1           H   tau(   1) = (   0.3248970   0.2189941   0.2915263  )
         2           H   tau(   2) = (   0.3073755   0.2407088   0.3232747  )
         3           H   tau(   3) = (   0.3078997   0.1926120   0.4481967  )
         4           H   tau(   4) = (   0.3071010   0.2148509   0.4843130  )
         5           H   tau(   5) = (   0.2999126   0.2740547   0.3499064  )
         6           H   tau(   6) = (   0.2604518   0.2739049   0.3431174  )
         7           H   tau(   7) = (   0.2891801   0.2650693   0.5049295  )
         8           H   tau(   8) = (   0.2940222   0.2743791   0.4650193  )
         9           H   tau(   9) = (   0.2330463   0.2263322   0.4009734  )
        10           H   tau(  10) = (   0.2196181   0.2465494   0.4325471  )
        11           H   tau(  11) = (   0.1959566   0.2247598   0.3181081  )
        12           H   tau(  12) = (   0.2000499   0.2434793   0.2837389  )
        13           H   tau(  13) = (   0.2753526   0.1926869   0.3938350  )
        14           H   tau(  14) = (   0.2576064   0.2173468   0.3658804  )
        15           H   tau(  15) = (   0.2719331   0.2765007   0.4081867  )
        16           H   tau(  16) = (   0.3037814   0.3048546   0.4073880  )
        17           H   tau(  17) = (   0.3345064   0.1188319   0.3686759  )
        18           H   tau(  18) = (   0.3563959   0.1532759   0.3647573  )
        19           H   tau(  19) = (   0.2563335   0.1852739   0.4969425  )
        20           H   tau(  20) = (   0.2238113   0.1618869   0.5030825  )
        21           H   tau(  21) = (   0.2134781   0.1873456   0.3541745  )
        22           H   tau(  22) = (   0.1729689   0.1827031   0.3433421  )
        23           H   tau(  23) = (   0.2269063   0.3739673   0.3606140  )
        24           H   tau(  24) = (   0.2260077   0.3336079   0.3583177  )
        25           H   tau(  25) = (   0.3573194   0.2879820   0.3900661  )
        26           H   tau(  26) = (   0.3697492   0.2997629   0.4249594  )
        27           H   tau(  27) = (   0.4472233   0.2225134   0.3712467  )
        28           H   tau(  28) = (   0.4248097   0.2551853   0.3635343  )
        29           H   tau(  29) = (   0.2043679   0.2812929   0.3344066  )
        30           H   tau(  30) = (   0.2182454   0.2760764   0.3754649  )
        31           H   tau(  31) = (   0.3825284   0.2485960   0.3772370  )
        32           H   tau(  32) = (   0.3493573   0.2357170   0.3538250  )
        33           H   tau(  33) = (   0.3951329   0.1992762   0.3523025  )
        34           H   tau(  34) = (   0.3625608   0.1937102   0.3305379  )
        35           H   tau(  35) = (   0.3216024   0.3372020   0.3720704  )
        36           H   tau(  36) = (   0.2860851   0.3334831   0.3552477  )
        37           H   tau(  37) = (   0.4096094   0.3043554   0.3852739  )
        38           H   tau(  38) = (   0.4375889   0.3166355   0.3638837  )
        39           H   tau(  39) = (   0.3226008   0.1772370   0.3909397  )
        40           H   tau(  40) = (   0.3267940   0.2143267   0.4049919  )
        41           H   tau(  41) = (   0.3968052   0.2704106   0.4786472  )
        42           H   tau(  42) = (   0.3579933   0.2707600   0.4685386  )
        43           H   tau(  43) = (   0.2159990   0.2219393   0.4896044  )
        44           H   tau(  44) = (   0.1900911   0.2473231   0.4848621  )
        45           O   tau(  45) = (   0.3286410   0.2272557   0.3146886  )
        46           O   tau(  46) = (   0.2990890   0.1923624   0.4728566  )
        47           O   tau(  47) = (   0.2807688   0.2595782   0.3441158  )
        48           O   tau(  48) = (   0.3024585   0.2576563   0.4850119  )
        49           O   tau(  49) = (   0.2244103   0.2508673   0.4073131  )
        50           O   tau(  50) = (   0.1959815   0.2474978   0.3066018  )
        51           O   tau(  51) = (   0.2534382   0.1975540   0.3802820  )
        52           O   tau(  52) = (   0.2919755   0.2870336   0.4209659  )
        53           O   tau(  53) = (   0.3337077   0.1432922   0.3736428  )
        54           O   tau(  54) = (   0.2331961   0.1839261   0.5071259  )
        55           O   tau(  55) = (   0.1958318   0.1914639   0.3372520  )
        56           O   tau(  56) = (   0.2417322   0.3529764   0.3622613  )
        57           O   tau(  57) = (   0.3654811   0.3092475   0.4021465  )
        58           O   tau(  58) = (   0.4267815   0.2295520   0.3611631  )
        59           O   tau(  59) = (   0.2136029   0.2925246   0.3545988  )
        60           O   tau(  60) = (   0.3574442   0.2458255   0.3767877  )
        61           O   tau(  61) = (   0.3786597   0.1816299   0.3447648  )
        62           O   tau(  62) = (   0.3068014   0.3207039   0.3606889  )
        63           O   tau(  63) = (   0.4259329   0.2963434   0.3687508  )
        64           O   tau(  64) = (   0.3132160   0.1929115   0.4090353  )
        65           O   tau(  65) = (   0.3811307   0.2767503   0.4597529  )
        66           O   tau(  66) = (   0.2128791   0.2410583   0.4745788  )

     number of k points=     1
                       cart. coord. in units 2pi/alat
        k(    1) = (   0.0000000   0.0000000   0.0000000), wk =   2.0000000

     Dense  grid:  4816379 G-vectors     FFT dimensions: ( 270, 270, 270)

     Estimated max dynamical RAM per process >     612.29 MB

     Estimated total dynamical RAM >      19.13 GB

     Check: negative core charge=   -0.000006

     Initial potential from superposition of free atoms

     starting charge     175.9995, renormalised to     176.0000

     negative rho (up, down):  3.722E-01 0.000E+00
     Starting wfcs are  132 randomized atomic wfcs
     Checking if some PAW data can be deallocated... 

     total cpu time spent up to now is        9.3 secs

     Self-consistent Calculation

     iteration #  1     ecut=    30.00 Ry     beta= 0.50
     Davidson diagonalization with overlap
     ethr =  1.00E-02,  avg # of iterations =  2.0

     negative rho (up, down):  4.420E-01 0.000E+00

     total cpu time spent up to now is       18.6 secs

     total energy              =    -965.74349975 Ry
     estimated scf accuracy    <       6.96416905 Ry

     iteration #  2     ecut=    30.00 Ry     beta= 0.50
     Davidson diagonalization with overlap
     ethr =  3.96E-03,  avg # of iterations =  2.0

     negative rho (up, down):  4.634E-01 0.000E+00

     total cpu time spent up to now is       26.9 secs

     total energy              =    -967.69389584 Ry
     estimated scf accuracy    <       1.01527824 Ry

     iteration #  3     ecut=    30.00 Ry     beta= 0.50
     Davidson diagonalization with overlap
     ethr =  5.77E-04,  avg # of iterations =  2.0

     negative rho (up, down):  5.109E-01 0.000E+00

     total cpu time spent up to now is       34.5 secs

     total energy              =    -967.74924697 Ry
     estimated scf accuracy    <       0.13005603 Ry

     iteration #  4     ecut=    30.00 Ry     beta= 0.50
     Davidson diagonalization with overlap
     ethr =  7.39E-05,  avg # of iterations =  3.0

     negative rho (up, down):  5.104E-01 0.000E+00

     total cpu time spent up to now is       43.0 secs

     total energy              =    -967.77224605 Ry
     estimated scf accuracy    <       0.03940719 Ry

     iteration #  5     ecut=    30.00 Ry     beta= 0.50
     Davidson diagonalization with overlap
     ethr =  2.24E-05,  avg # of iterations =  2.0

     negative rho (up, down):  5.094E-01 0.000E+00

     total cpu time spent up to now is       49.8 secs

     total energy              =    -967.77280218 Ry
     estimated scf accuracy    <       0.00730961 Ry

     iteration #  6     ecut=    30.00 Ry     beta= 0.50
     Davidson diagonalization with overlap
     ethr =  4.15E-06,  avg # of iterations =  2.0

     negative rho (up, down):  5.085E-01 0.000E+00

     total cpu time spent up to now is       56.8 secs

     total energy              =    -967.77284248 Ry
     estimated scf accuracy    <       0.00159569 Ry

     iteration #  7     ecut=    30.00 Ry     beta= 0.50
     Davidson diagonalization with overlap
     ethr =  9.07E-07,  avg # of iterations =  2.0

     negative rho (up, down):  5.083E-01 0.000E+00

     total cpu time spent up to now is       64.9 secs

     total energy              =    -967.77314344 Ry
     estimated scf accuracy    <       0.00005370 Ry

     iteration #  8     ecut=    30.00 Ry     beta= 0.50
     Davidson diagonalization with overlap
     ethr =  3.05E-08,  avg # of iterations =  3.0

     negative rho (up, down):  5.083E-01 0.000E+00

     total cpu time spent up to now is       73.9 secs

     total energy              =    -967.77316867 Ry
     estimated scf accuracy    <       0.00002123 Ry

     iteration #  9     ecut=    30.00 Ry     beta= 0.50
     Davidson diagonalization with overlap
     ethr =  1.21E-08,  avg # of iterations =  2.0

     negative rho (up, down):  5.083E-01 0.000E+00

     total cpu time spent up to now is       80.5 secs

     total energy              =    -967.77316630 Ry
     estimated scf accuracy    <       0.00000877 Ry

     iteration # 10     ecut=    30.00 Ry     beta= 0.50
     Davidson diagonalization with overlap
     ethr =  4.98E-09,  avg # of iterations =  2.0

     negative rho (up, down):  5.084E-01 0.000E+00

     total cpu time spent up to now is       88.2 secs

     End of self-consistent calculation

          k = 0.0000 0.0000 0.0000 (602235 PWs)   bands (ev):

   -26.0897 -25.8531 -25.6435 -25.5721 -25.4287 -25.3397 -25.1814 -25.1429
   -25.1187 -24.9928 -24.8489 -24.7973 -24.7045 -24.6897 -24.5208 -24.4626
   -24.4116 -24.2767 -24.0391 -23.9075 -23.6051 -22.7469 -14.2521 -13.9918
   -13.8242 -13.3180 -13.2653 -13.2564 -13.1699 -12.9952 -12.9036 -12.8939
   -12.8629 -12.7932 -12.5209 -12.4605 -12.2964 -12.1859 -12.1377 -12.0407
   -12.0145 -11.9829 -11.5778 -11.4729 -10.9746 -10.6294 -10.3174 -10.2923
   -10.2268 -10.1277  -9.9988  -9.7239  -9.6373  -9.4647  -9.2530  -9.2119
    -9.0108  -8.9304  -8.8298  -8.7028  -8.5856  -8.4952  -8.4027  -8.3331
    -7.9476  -7.8129  -7.7865  -7.7193  -7.6454  -7.6147  -7.5451  -7.5419
    -7.3519  -7.2070  -7.1693  -7.1538  -7.0637  -7.0251  -6.9757  -6.9378
    -6.9156  -6.8525  -6.7477  -6.6298  -6.6021  -6.4788  -6.3898  -5.4320

     highest occupied level (ev):    -5.4320

!    total energy              =    -967.77316716 Ry
     estimated scf accuracy    <       0.00000056 Ry

     The total energy is the sum of the following terms:
     one-electron contribution =   -5839.46006334 Ry
     hartree contribution      =    2955.46332316 Ry
     xc contribution           =    -193.71688646 Ry
     ewald contribution        =    2319.24336022 Ry
     one-center paw contrib.   =    -209.30290075 Ry

     convergence has been achieved in  10 iterations

     negative rho (up, down):  5.084E-01 0.000E+00

     Forces acting on atoms (cartesian axes, Ry/au):

     atom    1 type  1   force =    -0.00276024    0.01863076    0.03522544
     atom    2 type  1   force =     0.03097648   -0.04781261   -0.04622500
     atom    3 type  1   force =    -0.02675579   -0.00168309    0.07155637
     atom    4 type  1   force =    -0.03646550   -0.07541680   -0.06516415
     atom    5 type  1   force =    -0.01985772    0.02762956    0.01687190
     atom    6 type  1   force =     0.00100904    0.00547506   -0.00559297
     atom    7 type  1   force =     0.02102112   -0.00964008   -0.03292886
     atom    8 type  1   force =     0.03474445   -0.07481295    0.05968509
     atom    9 type  1   force =    -0.01966281    0.06942762    0.00810085
     atom   10 type  1   force =     0.00204705    0.02700128   -0.04860937
     atom   11 type  1   force =    -0.00002713    0.01699774   -0.00690632
     atom   12 type  1   force =     0.01147484   -0.00878019   -0.06261982
     atom   13 type  1   force =    -0.02724032    0.02700079   -0.03135742
     atom   14 type  1   force =     0.02875726   -0.01728529    0.00823842
     atom   15 type  1   force =     0.05957884    0.04333706    0.03658080
     atom   16 type  1   force =    -0.04237935   -0.04342912    0.00844660
     atom   17 type  1   force =    -0.00530592    0.04122430    0.01166575
     atom   18 type  1   force =    -0.05088703   -0.01813891    0.01092246
     atom   19 type  1   force =    -0.01890392   -0.01530653   -0.00467508
     atom   20 type  1   force =     0.01036229   -0.00551973   -0.00774211
     atom   21 type  1   force =    -0.01432935   -0.00964456    0.01217498
     atom   22 type  1   force =     0.06536066    0.01495530    0.00580027
     atom   23 type  1   force =     0.05137198   -0.06910664    0.00389444
     atom   24 type  1   force =     0.00964267   -0.00026607    0.00381200
     atom   25 type  1   force =     0.00946761    0.04015072    0.01737852
     atom   26 type  1   force =     0.00336533    0.01613881   -0.01201886
     atom   27 type  1   force =     0.03415079   -0.00289130    0.02161545
     atom   28 type  1   force =     0.03685004   -0.04028950   -0.01011211
     atom   29 type  1   force =     0.00206874   -0.02230971    0.01758483
     atom   30 type  1   force =    -0.03944314    0.03908574   -0.06572247
     atom   31 type  1   force =    -0.05237612   -0.03310969   -0.01542144
     atom   32 type  1   force =     0.04900815    0.03974448    0.06435018
     atom   33 type  1   force =    -0.01176941   -0.02220183   -0.00859772
     atom   34 type  1   force =    -0.00028222   -0.00193126    0.00245723
     atom   35 type  1   force =    -0.01027233   -0.02170666   -0.01804173
     atom   36 type  1   force =     0.00280428    0.00147143    0.00968696
     atom   37 type  1   force =    -0.04025729   -0.00132994    0.01526417
     atom   38 type  1   force =     0.03203336    0.02400500   -0.02328835
     atom   39 type  1   force =    -0.01795110   -0.00579251    0.04527162
     atom   40 type  1   force =    -0.03270684   -0.03936338    0.00729614
     atom   41 type  1   force =    -0.03872894    0.01716748   -0.04532725
     atom   42 type  1   force =     0.04362776    0.00757360   -0.00963679
     atom   43 type  1   force =     0.04064778   -0.04752603    0.00023446
     atom   44 type  1   force =     0.06087356    0.00605646   -0.05011854
     atom   45 type  2   force =    -0.02933934    0.01413475    0.00119896
     atom   46 type  2   force =     0.03806046    0.05014377    0.01675849
     atom   47 type  2   force =     0.00312289   -0.01431275    0.00089432
     atom   48 type  2   force =    -0.04126050    0.10958591   -0.03791091
     atom   49 type  2   force =     0.02114897   -0.08292404    0.04472952
     atom   50 type  2   force =    -0.01296344    0.01188311    0.05648522
     atom   51 type  2   force =    -0.00101116   -0.00550972    0.00281393
     atom   52 type  2   force =    -0.03161369   -0.01526487   -0.01347115
     atom   53 type  2   force =     0.06545657   -0.02979523   -0.03828228
     atom   54 type  2   force =     0.02156166    0.02474264    0.00264264
     atom   55 type  2   force =    -0.04337414   -0.02876882   -0.00201295
     atom   56 type  2   force =    -0.04987688    0.06328932   -0.01019095
     atom   57 type  2   force =    -0.00411679   -0.04492279   -0.01092826
     atom   58 type  2   force =    -0.05620139    0.04652530   -0.01874502
     atom   59 type  2   force =     0.03929259   -0.02511010    0.05737573
     atom   60 type  2   force =    -0.00980448   -0.01197252   -0.04826562
     atom   61 type  2   force =     0.02281412    0.01545815   -0.00148167
     atom   62 type  2   force =     0.00983440    0.03455366    0.00716312
     atom   63 type  2   force =    -0.00800467   -0.01891810    0.01084949
     atom   64 type  2   force =     0.04996896    0.05105118   -0.05677649
     atom   65 type  2   force =    -0.01780720   -0.03271225    0.06719936
     atom   66 type  2   force =    -0.09876861    0.04106460    0.04594597
     The non-local contrib.  to forces
     atom    1 type  1   force =     0.01293106    0.03489231    0.09519292
     atom    2 type  1   force =     0.05765081   -0.03703059   -0.02509848
     atom    3 type  1   force =    -0.02604478    0.00239689    0.07504877
     atom    4 type  1   force =    -0.02244752   -0.06683686   -0.03590665
     atom    5 type  1   force =    -0.08428046   -0.06178986   -0.02528079
     atom    6 type  1   force =     0.08573744   -0.05673912    0.00407072
     atom    7 type  1   force =     0.05225815   -0.02776209   -0.08009727
     atom    8 type  1   force =     0.02003685   -0.04146594    0.05263491
     atom    9 type  1   force =    -0.02268664    0.06645962    0.01663257
     atom   10 type  1   force =     0.01545181    0.01340901   -0.08162358
     atom   11 type  1   force =     0.00078665    0.07698144   -0.04185753
     atom   12 type  1   force =    -0.02101996    0.01847207    0.12041457
     atom   13 type  1   force =    -0.06427563    0.01731404   -0.04256699
     atom   14 type  1   force =    -0.01552749   -0.08298625    0.06150311
     atom   15 type  1   force =     0.06811134    0.03777216    0.03951143
     atom   16 type  1   force =    -0.04693059   -0.06771265    0.04947503
     atom   17 type  1   force =    -0.00130557    0.09844651    0.01913019
     atom   18 type  1   force =    -0.06795677   -0.03227408    0.02593158
     atom   19 type  1   force =    -0.08896131   -0.00877843    0.03796639
     atom   20 type  1   force =     0.04589267    0.10043959    0.01643684
     atom   21 type  1   force =    -0.07773248    0.01563466   -0.06860918
     atom   22 type  1   force =     0.09009804    0.03267985   -0.01970261
     atom   23 type  1   force =     0.04965397   -0.07405622    0.00484077
     atom   24 type  1   force =     0.05720044    0.07546338    0.01429938
     atom   25 type  1   force =     0.02928103    0.07176533    0.04286590
     atom   26 type  1   force =    -0.01787365    0.03557942   -0.09088367
     atom   27 type  1   force =    -0.10200758    0.03847756   -0.04904291
     atom   28 type  1   force =     0.00795806   -0.08654358   -0.00555572
     atom   29 type  1   force =     0.03807150    0.04329812    0.08450830
     atom   30 type  1   force =    -0.01251528    0.04039660   -0.05713981
     atom   31 type  1   force =    -0.09661864   -0.01139040   -0.00548508
     atom   32 type  1   force =     0.02827831    0.03145523    0.07001837
     atom   33 type  1   force =    -0.06457871   -0.06527314   -0.02946253
     atom   34 type  1   force =     0.07080350   -0.04993216    0.06221990
     atom   35 type  1   force =    -0.06348565   -0.06562271   -0.04727649
     atom   36 type  1   force =     0.08674277   -0.05097171    0.02322989
     atom   37 type  1   force =     0.07263121   -0.03360649   -0.07186758
     atom   38 type  1   force =    -0.05828707   -0.09997919    0.02501056
     atom   39 type  1   force =    -0.03062230    0.05478331    0.06113882
     atom   40 type  1   force =    -0.04896356   -0.07740644    0.01304487
     atom   41 type  1   force =    -0.06114279    0.02344368   -0.06964868
     atom   42 type  1   force =     0.08800318    0.02163557   -0.03021082
     atom   43 type  1   force =    -0.01505817    0.08439367   -0.06600377
     atom   44 type  1   force =     0.07849856   -0.02240623   -0.03531807
     atom   45 type  2   force =    -1.37180247    0.08247416   -1.11906572
     atom   46 type  2   force =     0.94134574    1.38836373   -0.67792496
     atom   47 type  2   force =     0.09985654    1.82214095    0.14262469
     atom   48 type  2   force =    -1.34786263    1.50751979    0.38712298
     atom   49 type  2   force =     0.21925799   -1.38362808    0.96774178
     atom   50 type  2   force =     0.39303971   -1.57637719   -1.10495648
     atom   51 type  2   force =     1.35187539    1.21238656   -0.20012139
     atom   52 type  2   force =    -0.53098189    0.53959102   -1.64396846
     atom   53 type  2   force =     1.34849241   -1.13028402   -0.81646716
     atom   54 type  2   force =     0.75154517   -1.56782990   -1.11942718
     atom   55 type  2   force =    -0.50791171   -0.79169023    1.68146497
     atom   56 type  2   force =    -1.99401535    0.29722803   -0.46700923
     atom   57 type  2   force =    -0.11943082   -1.95199865    0.70192965
     atom   58 type  2   force =     1.31851707    1.00548175    1.06052581
     atom   59 type  2   force =    -0.16909052   -1.61442857   -0.22536111
     atom   60 type  2   force =     1.25212784   -0.33777454   -1.46995391
     atom   61 type  2   force =    -0.19062461    1.90756109   -0.37243075
     atom   62 type  2   force =    -0.37271206    2.01991951    0.47787987
     atom   63 type  2   force =    -0.13291603    1.87622635    0.72246586
     atom   64 type  2   force =     1.21561369    0.56108686   -1.29531982
     atom   65 type  2   force =    -0.50050794   -0.80261077    1.97031714
     atom   66 type  2   force =    -1.41068627   -0.80799568    1.50399075
     The ionic contribution  to forces
     atom    1 type  1   force =    -0.15112345   -1.65732782   -5.65350248
     atom    2 type  1   force =    -1.42872903    0.69944541   -2.08475753
     atom    3 type  1   force =     1.30214730   -1.66445774   -0.27165873
     atom    4 type  1   force =     1.56559222    0.85138635    3.37152800
     atom    5 type  1   force =     2.50498525    2.42348453   -0.87433619
     atom    6 type  1   force =    -2.94759000    2.36428807   -1.98914740
     atom    7 type  1   force =    -1.73930969    1.77465733    4.98620793
     atom    8 type  1   force =    -0.89425952    2.59260198    0.57556045
     atom    9 type  1   force =    -1.30200864   -2.60339284    0.29555400
     atom   10 type  1   force =    -2.37788861   -0.08756161    3.10036737
     atom   11 type  1   force =    -1.65915953   -2.31556423   -0.63979640
     atom   12 type  1   force =    -0.47094940   -0.52543765   -5.69993255
     atom   13 type  1   force =     0.77412669   -2.45929258    1.22027868
     atom   14 type  1   force =    -0.36016948    1.04663267   -2.73806022
     atom   15 type  1   force =    -2.65157554    0.07366792   -0.35041294
     atom   16 type  1   force =     1.21537430    3.94855302   -0.21009695
     atom   17 type  1   force =     0.32382428   -5.60317892   -0.93995623
     atom   18 type  1   force =     3.04529746   -1.77623725   -0.97965726
     atom   19 type  1   force =     2.00382030   -1.21900847    0.74078319
     atom   20 type  1   force =    -2.37437787   -4.59617130    0.71767646
     atom   21 type  1   force =     0.46479322   -2.45400181    1.28600497
     atom   22 type  1   force =    -4.79342239   -2.42113102    0.25372974
     atom   23 type  1   force =    -2.61792348    4.59858782   -0.45323455
     atom   24 type  1   force =    -3.07244438    0.25542113   -0.90428551
     atom   25 type  1   force =     0.22918563   -0.49860000   -1.26589890
     atom   26 type  1   force =     1.70624153    0.88671960    3.51147930
     atom   27 type  1   force =     5.39953910   -1.79988104    1.45241762
     atom   28 type  1   force =     2.10421466    2.24594304   -0.51368101
     atom   29 type  1   force =    -2.97249171    0.09883206   -3.45843299
     atom   30 type  1   force =    -1.76837312   -0.11856510    1.47886179
     atom   31 type  1   force =     4.27384125    0.31088860    0.12224707
     atom   32 type  1   force =     0.36777768   -0.89291341   -3.02639424
     atom   33 type  1   force =     3.60858228    0.29173002   -0.03371934
     atom   34 type  1   force =    -0.76489700   -0.10925531   -3.73476640
     atom   35 type  1   force =     2.46052731    4.76883364    0.82219465
     atom   36 type  1   force =    -2.20939931    3.76266909   -1.82643333
     atom   37 type  1   force =     0.19478390    2.53991199    1.99449378
     atom   38 type  1   force =     3.63835790    4.36491425   -1.34547919
     atom   39 type  1   force =     1.19472778   -3.08756029   -1.38231864
     atom   40 type  1   force =     2.20245772    1.42321722    0.49373657
     atom   41 type  1   force =     3.62559334   -0.52736489    4.03151842
     atom   42 type  1   force =    -1.38764502   -0.20375718    2.97634184
     atom   43 type  1   force =    -1.24537791   -2.27261495    3.34845056
     atom   44 type  1   force =    -4.57209012    1.26774524    2.51590190
     atom   45 type  2   force =     4.87792848   -2.88793504  -14.19954449
     atom   46 type  2   force =     1.05026807  -11.54635161   12.02385434
     atom   47 type  2   force =    -2.78679029   -0.89175032  -10.64911883
     atom   48 type  2   force =     3.40558221    2.42874103   13.40390300
     atom   49 type  2   force =   -12.33748818    3.81220606    3.02181585
     atom   50 type  2   force =   -10.13540533    3.65698848   -9.88504001
     atom   51 type  2   force =    -8.41252002  -13.60166584   -1.75629945
     atom   52 type  2   force =    -1.23305801    7.93761904    9.76875736
     atom   53 type  2   force =     0.00224400  -14.54168091   -0.62955909
     atom   54 type  2   force =    -6.66011232   -4.93088044   12.32854229
     atom   55 type  2   force =    -9.62794470   -8.68576344   -7.48989112
     atom   56 type  2   force =    -2.24353382   14.23213623   -1.27112533
     atom   57 type  2   force =     7.38522386   15.93421643    1.38037901
     atom   58 type  2   force =    12.43130257   -4.93281833   -4.66671441
     atom   59 type  2   force =   -11.48949460   10.03219096   -3.56598557
     atom   60 type  2   force =     5.35904443    0.25693038    0.85195545
     atom   61 type  2   force =    10.17039672  -13.13077079   -6.63058697
     atom   62 type  2   force =     3.38052893   10.70473247   -7.44116299
     atom   63 type  2   force =    13.07140541    4.59159861   -4.63087008
     atom   64 type  2   force =     1.04726451   -9.78012172    6.13030684
     atom   65 type  2   force =    10.70565744    3.83107603    8.38315699
     atom   66 type  2   force =    -8.40508526    3.81444717    6.60385190
     The local contribution  to forces
     atom    1 type  1   force =     0.13539268    1.64103569    5.59346053
     atom    2 type  1   force =     1.40201990   -0.71024658    2.06356732
     atom    3 type  1   force =    -1.30287602    1.66037142    0.26810538
     atom    4 type  1   force =    -1.57963168   -0.85994381   -3.40081806
     atom    5 type  1   force =    -2.44056347   -2.33405023    0.91644934
     atom    6 type  1   force =     2.86278611   -2.30205727    1.97943074
     atom    7 type  1   force =     1.70803865   -1.75655654   -4.93908971
     atom    8 type  1   force =     0.90893164   -2.62596821   -0.56855199
     atom    9 type  1   force =     1.30500872    2.60629288   -0.30413574
     atom   10 type  1   force =     2.36443823    0.10111153   -3.06735178
     atom   11 type  1   force =     1.65830990    2.25555686    0.67469570
     atom   12 type  1   force =     0.50341119    0.49815977    5.51683572
     atom   13 type  1   force =    -0.73713210    2.46896544   -1.20912626
     atom   14 type  1   force =     0.40441596   -0.98095241    2.68474829
     atom   15 type  1   force =     2.64300783   -0.06812219    0.34742627
     atom   16 type  1   force =    -1.21085441   -3.92428079    0.16901144
     atom   17 type  1   force =    -0.32785656    5.54592120    0.93243702
     atom   18 type  1   force =    -3.02826807    1.79034495    0.96460435
     atom   19 type  1   force =    -1.93380027    1.21245564   -0.78347597
     atom   20 type  1   force =     2.33881129    4.49018129   -0.74191014
     atom   21 type  1   force =    -0.40142071    2.42869773   -1.20525319
     atom   22 type  1   force =     4.76863097    2.40337897   -0.22826549
     atom   23 type  1   force =     2.61958427   -4.59363710    0.45223558
     atom   24 type  1   force =     3.02482907   -0.33117821    0.89374036
     atom   25 type  1   force =    -0.24904369    0.46694803    1.24035391
     atom   26 type  1   force =    -1.68505281   -0.90617421   -3.43268177
     atom   27 type  1   force =    -5.26339147    1.75848935   -1.38179387
     atom   28 type  1   force =    -2.07535769   -2.19970367    0.50908160
     atom   29 type  1   force =     2.93645146   -0.16446904    3.39144943
     atom   30 type  1   force =     1.74140685    0.11723355   -1.48751247
     atom   31 type  1   force =    -4.22962641   -0.33262878   -0.13223667
     atom   32 type  1   force =    -0.34707618    0.90116926    3.02066830
     atom   33 type  1   force =    -3.55580124   -0.24864047    0.05454117
     atom   34 type  1   force =     0.69374838    0.15726922    3.67493412
     atom   35 type  1   force =    -2.40735034   -4.72492715   -0.79300144
     atom   36 type  1   force =     2.12542250   -3.71023953    1.81283923
     atom   37 type  1   force =    -0.30772379   -2.50763249   -1.90739197
     atom   38 type  1   force =    -3.54805916   -4.24090842    1.29712957
     atom   39 type  1   force =    -1.18207077    3.02695579    1.36636762
     atom   40 type  1   force =    -2.18621050   -1.38516603   -0.49954599
     atom   41 type  1   force =    -3.60316917    0.52103521   -4.00715585
     atom   42 type  1   force =     1.34314534    0.18964437   -2.95576391
     atom   43 type  1   force =     1.30103901    2.14067051   -3.28225660
     atom   44 type  1   force =     4.55441989   -1.23930471   -2.53074627
     atom   45 type  2   force =    -3.54907198    2.81952409   15.30720476
     atom   46 type  2   force =    -1.94364327   10.22205110  -11.33536844
     atom   47 type  2   force =     2.69046747   -0.92637719   10.50836404
     atom   48 type  2   force =    -2.11242650   -3.81053807  -13.82419333
     atom   49 type  2   force =    12.14128513   -2.52527152   -3.93486760
     atom   50 type  2   force =     9.73264587   -2.08326957   11.03514910
     atom   51 type  2   force =     7.07204449   12.39473921    1.95763987
     atom   52 type  2   force =     1.72737311   -8.48711498   -8.15439475
     atom   53 type  2   force =    -1.27197935   15.63023561    1.39931648
     atom   54 type  2   force =     5.93717783    6.50778518  -11.21753739
     atom   55 type  2   force =    10.08646593    9.44023278    5.82363697
     atom   56 type  2   force =     4.16690497  -14.46217477    1.72349448
     atom   57 type  2   force =    -7.27007713  -14.04639702   -2.08590650
     atom   58 type  2   force =   -13.79248853    3.98405995    3.59833462
     atom   59 type  2   force =    11.69655125   -8.45908591    3.84708381
     atom   60 type  2   force =    -6.60764575    0.06463254    0.55465449
     atom   61 type  2   force =    -9.95901846   11.25755415    6.99750521
     atom   62 type  2   force =    -3.00134339  -12.66930574    6.97483214
     atom   63 type  2   force =   -12.94640970   -6.46817432    3.92577550
     atom   64 type  2   force =    -2.20051679    9.27581205   -4.90438331
     atom   65 type  2   force =   -10.22745730   -3.06945406  -10.26528934
     atom   66 type  2   force =     9.70132955   -2.97265870   -8.04710945
     The core correction contribution to forces
     atom    1 type  1   force =     0.00000000    0.00000000    0.00000000
     atom    2 type  1   force =     0.00000000    0.00000000    0.00000000
     atom    3 type  1   force =     0.00000000    0.00000000    0.00000000
     atom    4 type  1   force =     0.00000000    0.00000000    0.00000000
     atom    5 type  1   force =     0.00000000    0.00000000    0.00000000
     atom    6 type  1   force =     0.00000000    0.00000000    0.00000000
     atom    7 type  1   force =     0.00000000    0.00000000    0.00000000
     atom    8 type  1   force =     0.00000000    0.00000000    0.00000000
     atom    9 type  1   force =     0.00000000    0.00000000    0.00000000
     atom   10 type  1   force =     0.00000000    0.00000000    0.00000000
     atom   11 type  1   force =     0.00000000    0.00000000    0.00000000
     atom   12 type  1   force =     0.00000000    0.00000000    0.00000000
     atom   13 type  1   force =     0.00000000    0.00000000    0.00000000
     atom   14 type  1   force =     0.00000000    0.00000000    0.00000000
     atom   15 type  1   force =     0.00000000    0.00000000    0.00000000
     atom   16 type  1   force =     0.00000000    0.00000000    0.00000000
     atom   17 type  1   force =     0.00000000    0.00000000    0.00000000
     atom   18 type  1   force =     0.00000000    0.00000000    0.00000000
     atom   19 type  1   force =     0.00000000    0.00000000    0.00000000
     atom   20 type  1   force =     0.00000000    0.00000000    0.00000000
     atom   21 type  1   force =     0.00000000    0.00000000    0.00000000
     atom   22 type  1   force =     0.00000000    0.00000000    0.00000000
     atom   23 type  1   force =     0.00000000    0.00000000    0.00000000
     atom   24 type  1   force =     0.00000000    0.00000000    0.00000000
     atom   25 type  1   force =     0.00000000    0.00000000    0.00000000
     atom   26 type  1   force =     0.00000000    0.00000000    0.00000000
     atom   27 type  1   force =     0.00000000    0.00000000    0.00000000
     atom   28 type  1   force =     0.00000000    0.00000000    0.00000000
     atom   29 type  1   force =     0.00000000    0.00000000    0.00000000
     atom   30 type  1   force =     0.00000000    0.00000000    0.00000000
     atom   31 type  1   force =     0.00000000    0.00000000    0.00000000
     atom   32 type  1   force =     0.00000000    0.00000000    0.00000000
     atom   33 type  1   force =     0.00000000    0.00000000    0.00000000
     atom   34 type  1   force =     0.00000000    0.00000000    0.00000000
     atom   35 type  1   force =     0.00000000    0.00000000    0.00000000
     atom   36 type  1   force =     0.00000000    0.00000000    0.00000000
     atom   37 type  1   force =     0.00000000    0.00000000    0.00000000
     atom   38 type  1   force =     0.00000000    0.00000000    0.00000000
     atom   39 type  1   force =     0.00000000    0.00000000    0.00000000
     atom   40 type  1   force =     0.00000000    0.00000000    0.00000000
     atom   41 type  1   force =     0.00000000    0.00000000    0.00000000
     atom   42 type  1   force =     0.00000000    0.00000000    0.00000000
     atom   43 type  1   force =     0.00000000    0.00000000    0.00000000
     atom   44 type  1   force =     0.00000000    0.00000000    0.00000000
     atom   45 type  2   force =     0.01353529   -0.00000422    0.01241160
     atom   46 type  2   force =    -0.00984946   -0.01377158    0.00615594
     atom   47 type  2   force =    -0.00045561   -0.01812867   -0.00102508
     atom   48 type  2   force =     0.01338488   -0.01614065   -0.00471732
     atom   49 type  2   force =    -0.00193638    0.01353478   -0.00986444
     atom   50 type  2   force =    -0.00324544    0.01442075    0.01117446
     atom   51 type  2   force =    -0.01237961   -0.01090308    0.00152475
     atom   52 type  2   force =     0.00505868   -0.00531505    0.01601549
     atom   53 type  2   force =    -0.01325295    0.01184517    0.00831741
     atom   54 type  2   force =    -0.00703638    0.01550918    0.01094398
     atom   55 type  2   force =     0.00594418    0.00839470   -0.01715842
     atom   56 type  2   force =     0.02056073   -0.00384571    0.00436841
     atom   57 type  2   force =     0.00010187    0.01906717   -0.00736639
     atom   58 type  2   force =    -0.01341387   -0.01017686   -0.01083848
     atom   59 type  2   force =     0.00124009    0.01603740    0.00145980
     atom   60 type  2   force =    -0.01328613    0.00417755    0.01495677
     atom   61 type  2   force =     0.00193855   -0.01863243    0.00389873
     atom   62 type  2   force =     0.00331498   -0.02069857   -0.00439113
     atom   63 type  2   force =    -0.00011365   -0.01833261   -0.00651093
     atom   64 type  2   force =    -0.01226113   -0.00564330    0.01242179
     atom   65 type  2   force =     0.00433128    0.00808616   -0.02067334
     atom   66 type  2   force =     0.01551794    0.00721081   -0.01475170
     The Hubbard contrib.    to forces
     atom    1 type  1   force =     0.00000000    0.00000000    0.00000000
     atom    2 type  1   force =     0.00000000    0.00000000    0.00000000
     atom    3 type  1   force =     0.00000000    0.00000000    0.00000000
     atom    4 type  1   force =     0.00000000    0.00000000    0.00000000
     atom    5 type  1   force =     0.00000000    0.00000000    0.00000000
     atom    6 type  1   force =     0.00000000    0.00000000    0.00000000
     atom    7 type  1   force =     0.00000000    0.00000000    0.00000000
     atom    8 type  1   force =     0.00000000    0.00000000    0.00000000
     atom    9 type  1   force =     0.00000000    0.00000000    0.00000000
     atom   10 type  1   force =     0.00000000    0.00000000    0.00000000
     atom   11 type  1   force =     0.00000000    0.00000000    0.00000000
     atom   12 type  1   force =     0.00000000    0.00000000    0.00000000
     atom   13 type  1   force =     0.00000000    0.00000000    0.00000000
     atom   14 type  1   force =     0.00000000    0.00000000    0.00000000
     atom   15 type  1   force =     0.00000000    0.00000000    0.00000000
     atom   16 type  1   force =     0.00000000    0.00000000    0.00000000
     atom   17 type  1   force =     0.00000000    0.00000000    0.00000000
     atom   18 type  1   force =     0.00000000    0.00000000    0.00000000
     atom   19 type  1   force =     0.00000000    0.00000000    0.00000000
     atom   20 type  1   force =     0.00000000    0.00000000    0.00000000
     atom   21 type  1   force =     0.00000000    0.00000000    0.00000000
     atom   22 type  1   force =     0.00000000    0.00000000    0.00000000
     atom   23 type  1   force =     0.00000000    0.00000000    0.00000000
     atom   24 type  1   force =     0.00000000    0.00000000    0.00000000
     atom   25 type  1   force =     0.00000000    0.00000000    0.00000000
     atom   26 type  1   force =     0.00000000    0.00000000    0.00000000
     atom   27 type  1   force =     0.00000000    0.00000000    0.00000000
     atom   28 type  1   force =     0.00000000    0.00000000    0.00000000
     atom   29 type  1   force =     0.00000000    0.00000000    0.00000000
     atom   30 type  1   force =     0.00000000    0.00000000    0.00000000
     atom   31 type  1   force =     0.00000000    0.00000000    0.00000000
     atom   32 type  1   force =     0.00000000    0.00000000    0.00000000
     atom   33 type  1   force =     0.00000000    0.00000000    0.00000000
     atom   34 type  1   force =     0.00000000    0.00000000    0.00000000
     atom   35 type  1   force =     0.00000000    0.00000000    0.00000000
     atom   36 type  1   force =     0.00000000    0.00000000    0.00000000
     atom   37 type  1   force =     0.00000000    0.00000000    0.00000000
     atom   38 type  1   force =     0.00000000    0.00000000    0.00000000
     atom   39 type  1   force =     0.00000000    0.00000000    0.00000000
     atom   40 type  1   force =     0.00000000    0.00000000    0.00000000
     atom   41 type  1   force =     0.00000000    0.00000000    0.00000000
     atom   42 type  1   force =     0.00000000    0.00000000    0.00000000
     atom   43 type  1   force =     0.00000000    0.00000000    0.00000000
     atom   44 type  1   force =     0.00000000    0.00000000    0.00000000
     atom   45 type  2   force =     0.00000000    0.00000000    0.00000000
     atom   46 type  2   force =     0.00000000    0.00000000    0.00000000
     atom   47 type  2   force =     0.00000000    0.00000000    0.00000000
     atom   48 type  2   force =     0.00000000    0.00000000    0.00000000
     atom   49 type  2   force =     0.00000000    0.00000000    0.00000000
     atom   50 type  2   force =     0.00000000    0.00000000    0.00000000
     atom   51 type  2   force =     0.00000000    0.00000000    0.00000000
     atom   52 type  2   force =     0.00000000    0.00000000    0.00000000
     atom   53 type  2   force =     0.00000000    0.00000000    0.00000000
     atom   54 type  2   force =     0.00000000    0.00000000    0.00000000
     atom   55 type  2   force =     0.00000000    0.00000000    0.00000000
     atom   56 type  2   force =     0.00000000    0.00000000    0.00000000
     atom   57 type  2   force =     0.00000000    0.00000000    0.00000000
     atom   58 type  2   force =     0.00000000    0.00000000    0.00000000
     atom   59 type  2   force =     0.00000000    0.00000000    0.00000000
     atom   60 type  2   force =     0.00000000    0.00000000    0.00000000
     atom   61 type  2   force =     0.00000000    0.00000000    0.00000000
     atom   62 type  2   force =     0.00000000    0.00000000    0.00000000
     atom   63 type  2   force =     0.00000000    0.00000000    0.00000000
     atom   64 type  2   force =     0.00000000    0.00000000    0.00000000
     atom   65 type  2   force =     0.00000000    0.00000000    0.00000000
     atom   66 type  2   force =     0.00000000    0.00000000    0.00000000
     The SCF correction term to forces
     atom    1 type  1   force =     0.00000306    0.00001017    0.00002495
     atom    2 type  1   force =    -0.00000161   -0.00000127    0.00001417
     atom    3 type  1   force =    -0.00001871   -0.00001407    0.00001142
     atom    4 type  1   force =    -0.00001494   -0.00004290   -0.00001697
     atom    5 type  1   force =    -0.00003547   -0.00003528   -0.00000999
     atom    6 type  1   force =     0.00003907   -0.00003704    0.00000344
     atom    7 type  1   force =    -0.00000240    0.00000080    0.00000067
     atom    8 type  1   force =    -0.00000094   -0.00000120   -0.00000780
     atom    9 type  1   force =    -0.00001267    0.00004755    0.00000048
     atom   10 type  1   force =     0.00000920    0.00002194   -0.00005091
     atom   11 type  1   force =    -0.00000057    0.00000326    0.00000238
     atom   12 type  1   force =    -0.00000341    0.00000522    0.00001291
     atom   13 type  1   force =     0.00000430   -0.00000653    0.00000762
     atom   14 type  1   force =     0.00000185    0.00000028   -0.00000230
     atom   15 type  1   force =    -0.00000121   -0.00000124    0.00000652
     atom   16 type  1   force =    -0.00000507   -0.00000911    0.00000755
     atom   17 type  1   force =    -0.00000449    0.00001510    0.00000524
     atom   18 type  1   force =     0.00000392    0.00000707   -0.00000574
     atom   19 type  1   force =     0.00000094    0.00000432    0.00000178
     atom   20 type  1   force =    -0.00000022    0.00001029    0.00000520
     atom   21 type  1   force =    -0.00000580    0.00000444   -0.00001716
     atom   22 type  1   force =     0.00001762    0.00000709   -0.00001090
     atom   23 type  1   force =     0.00002080   -0.00002156    0.00000311
     atom   24 type  1   force =     0.00002112    0.00000722    0.00000824
     atom   25 type  1   force =     0.00000822    0.00001696    0.00000808
     atom   26 type  1   force =     0.00001385   -0.00000640    0.00001775
     atom   27 type  1   force =    -0.00002567    0.00000242   -0.00001493
     atom   28 type  1   force =    -0.00000142   -0.00000570   -0.00000651
     atom   29 type  1   force =     0.00000107    0.00000874    0.00001056
     atom   30 type  1   force =     0.00000199    0.00000028    0.00001849
     atom   31 type  1   force =    -0.00000874    0.00000048    0.00000372
     atom   32 type  1   force =    -0.00000807    0.00001298    0.00000821
     atom   33 type  1   force =    -0.00000815   -0.00003866   -0.00000654
     atom   34 type  1   force =     0.00002648   -0.00003342    0.00002008
     atom   35 type  1   force =    -0.00000007   -0.00001085   -0.00000799
     atom   36 type  1   force =     0.00000189   -0.00000684    0.00000164
     atom   37 type  1   force =     0.00001497   -0.00002336   -0.00001959
     atom   38 type  1   force =    -0.00001473   -0.00004205    0.00000118
     atom   39 type  1   force =    -0.00002223    0.00000826    0.00003430
     atom   40 type  1   force =    -0.00002693   -0.00002854    0.00001116
     atom   41 type  1   force =    -0.00004674    0.00003306   -0.00009067
     atom   42 type  1   force =     0.00008784    0.00003043   -0.00005343
     atom   43 type  1   force =     0.00000843    0.00000433   -0.00000525
     atom   44 type  1   force =     0.00000881    0.00000175   -0.00000563
     atom   45 type  2   force =     0.00003492    0.00005535    0.00014328
     atom   46 type  2   force =    -0.00009703   -0.00016828   -0.00000794
     atom   47 type  2   force =     0.00000836   -0.00021793   -0.00000004
     atom   48 type  2   force =     0.00002513   -0.00001660   -0.00007578
     atom   49 type  2   force =    -0.00000600    0.00021431   -0.00014560
     atom   50 type  2   force =    -0.00003467    0.00010022    0.00010862
     atom   51 type  2   force =    -0.00006782   -0.00008698    0.00002063
     atom   52 type  2   force =    -0.00004199   -0.00006531    0.00006968
     atom   53 type  2   force =    -0.00008395    0.00006851    0.00006054
     atom   54 type  2   force =    -0.00004906    0.00013821    0.00007142
     atom   55 type  2   force =     0.00003574    0.00003696   -0.00011488
     atom   56 type  2   force =     0.00017016   -0.00007488    0.00003120
     atom   57 type  2   force =     0.00002902    0.00016886   -0.00001356
     atom   58 type  2   force =    -0.00015505   -0.00004162   -0.00010209
     atom   59 type  2   force =     0.00004995    0.00015562    0.00012927
     atom   60 type  2   force =    -0.00008129    0.00004115    0.00007204
     atom   61 type  2   force =     0.00008551   -0.00027429    0.00008257
     atom   62 type  2   force =     0.00000952   -0.00011441   -0.00004431
     atom   63 type  2   force =    -0.00000712   -0.00025655   -0.00006039
     atom   64 type  2   force =    -0.00016774   -0.00010312    0.00014849
     atom   65 type  2   force =     0.00013291    0.00016997   -0.00036163
     atom   66 type  2   force =     0.00011900    0.00004059   -0.00008507

     Total force =     0.485279     Total SCF correction =     0.000968


     Computing stress (Cartesian axis) and pressure


     negative rho (up, down):  5.084E-01 0.000E+00
          total   stress  (Ry/bohr**3)                   (kbar)     P=       -2.84
  -0.00001990  -0.00000027  -0.00000027           -2.93       -0.04       -0.04
  -0.00000027  -0.00001888   0.00000017           -0.04       -2.78        0.02
  -0.00000027   0.00000017  -0.00001914           -0.04        0.02       -2.82


     init_run     :      8.34s CPU      9.05s WALL (       1 calls)
     electrons    :     73.73s CPU     78.97s WALL (       1 calls)
     forces       :      5.75s CPU      6.04s WALL (       1 calls)
     stress       :     16.74s CPU     17.05s WALL (       1 calls)

     Called by init_run:
     wfcinit      :      3.32s CPU      3.78s WALL (       1 calls)
     potinit      :      1.43s CPU      1.56s WALL (       1 calls)
     hinit0       :      1.04s CPU      1.08s WALL (       1 calls)

     Called by electrons:
     c_bands      :     49.66s CPU     52.47s WALL (      10 calls)
     sum_band     :     13.47s CPU     14.58s WALL (      10 calls)
     v_of_rho     :      6.55s CPU      7.11s WALL (      11 calls)
     newd         :      2.92s CPU      3.73s WALL (      11 calls)
     PAW_pot      :      1.05s CPU      1.05s WALL (      11 calls)
     mix_rho      :      0.99s CPU      1.07s WALL (      10 calls)

     Called by c_bands:
     init_us_2    :      0.67s CPU      0.69s WALL (      21 calls)
     init_us_2:cp :      0.67s CPU      0.69s WALL (      21 calls)
     regterg      :     48.75s CPU     51.55s WALL (      10 calls)

     Called by *egterg:
     rdiaghg      :      0.23s CPU      0.24s WALL (      32 calls)
     h_psi        :     44.00s CPU     46.67s WALL (      33 calls)
     s_psi        :      1.40s CPU      1.42s WALL (      33 calls)
     g_psi        :      0.14s CPU      0.14s WALL (      22 calls)

     Called by h_psi:
     h_psi:calbec :      1.41s CPU      1.41s WALL (      33 calls)
     vloc_psi     :     40.84s CPU     43.49s WALL (      33 calls)
     add_vuspsi   :      1.40s CPU      1.40s WALL (      33 calls)

     General routines
     calbec       :      2.09s CPU      2.11s WALL (      48 calls)
     fft          :      3.74s CPU      4.27s WALL (     119 calls)
     ffts         :      0.23s CPU      0.27s WALL (      10 calls)
     fftw         :     36.15s CPU     38.98s WALL (    2912 calls)

     Parallel routines

     PWSCF        :   1m44.71s CPU   1m51.35s WALL


   This run was terminated on:  23: 3:10  27Mar2024            

=------------------------------------------------------------------------------=
   JOB DONE.
=------------------------------------------------------------------------------=
