
     Program PWSCF v.7.2 starts on 27Mar2024 at 12: 5:59 

     This program is part of the open-source Quantum ESPRESSO suite
     for quantum simulation of materials; please cite
         "P. Giannozzi et al., J. Phys.:Condens. Matter 21 395502 (2009);
         "P. Giannozzi et al., J. Phys.:Condens. Matter 29 465901 (2017);
         "P. Giannozzi et al., J. Chem. Phys. 152 154105 (2020);
          URL http://www.quantum-espresso.org", 
     in publications or presentations arising from this work. More details at
     http://www.quantum-espresso.org/quote

     Parallel version (MPI), running on    32 processors

     MPI processes distributed on     1 nodes
     170077 MiB available memory on the printing compute node when the environment starts

     Reading input from pw-wt-281.in
Warning: card &CELL ignored
Warning: card / ignored

     Current dimensions of program PWSCF are:
     Max number of different atomic species (ntypx) = 10
     Max number of k-points (npk) =  40000
     Max angular momentum in pseudopotentials (lmaxx) =  4
     file O.pbe-n-kjpaw_psl.0.1.UPF: wavefunction(s)  2P renormalized

     IMPORTANT: XC functional enforced from input :
     Exchange-correlation= PBE
                           (   1   4   3   4   0   0   0)
     Any further DFT definition will be discarded
     Please, verify this is what you really want


     gamma-point specific algorithms are used

     R & G space division:  proc/nbgrp/npool/nimage =      32
     Subspace diagonalization in iterative solution of the eigenvalue problem:
     a serial algorithm will be used


     Parallelization info
     --------------------
     sticks:   dense  smooth     PW     G-vecs:    dense   smooth      PW
     Min        1707    1707    426               301015   301015   37634
     Max        1710    1710    428               301034   301034   37648
     Sum       54693   54693  13673              9632757  9632757 1204469

     Using Slab Decomposition



     bravais-lattice index     =            0
     lattice parameter (alat)  =      75.7119  a.u.
     unit-cell volume          =  434002.3113 (a.u.)^3
     number of atoms/cell      =           66
     number of atomic types    =            2
     number of electrons       =       176.00
     number of Kohn-Sham states=           88
     kinetic-energy cutoff     =      30.0000  Ry
     charge density cutoff     =     120.0000  Ry
     scf convergence threshold =      1.0E-06
     mixing beta               =       0.5000
     number of iterations used =            8  plain     mixing
     Exchange-correlation= PBE
                           (   1   4   3   4   0   0   0)

     celldm(1)=  75.711877  celldm(2)=   0.000000  celldm(3)=   0.000000
     celldm(4)=   0.000000  celldm(5)=   0.000000  celldm(6)=   0.000000

     crystal axes: (cart. coord. in units of alat)
               a(1) = (   1.000000   0.000000   0.000000 )  
               a(2) = (   0.000000   1.000000   0.000000 )  
               a(3) = (   0.000000   0.000000   1.000000 )  

     reciprocal axes: (cart. coord. in units 2 pi/alat)
               b(1) = (  1.000000  0.000000  0.000000 )  
               b(2) = (  0.000000  1.000000  0.000000 )  
               b(3) = (  0.000000  0.000000  1.000000 )  


     PseudoPot. # 1 for H  read from file:
     /share/pfaendtnergroup/rverma7/QE_PP/H.pbe-rrkjus_psl.1.0.0.UPF
     MD5 check sum: f52b6d4d1c606e5624b1dc7b2218f220
     Pseudo is Ultrasoft, Zval =  1.0
     Generated using "atomic" code by A. Dal Corso  v.5.1
     Using radial grid of  929 points,  2 beta functions with: 
                l(1) =   0
                l(2) =   0
     Q(r) pseudized with 0 coefficients 


     PseudoPot. # 2 for O  read from file:
     /share/pfaendtnergroup/rverma7/QE_PP/O.pbe-n-kjpaw_psl.0.1.UPF
     MD5 check sum: 0234752ac141de4415c5fc33072bef88
     Pseudo is Projector augmented-wave + core cor, Zval =  6.0
     Generated using "atomic" code by A. Dal Corso  v.5.0.99 svn rev. 10869
     Shape of augmentation charge: BESSEL
     Using radial grid of 1095 points,  4 beta functions with: 
                l(1) =   0
                l(2) =   0
                l(3) =   1
                l(4) =   1
     Q(r) pseudized with 0 coefficients 


     atomic species   valence    mass     pseudopotential
        H              1.00     1.00800     H ( 1.00)
        O              6.00    15.99900     O ( 1.00)

     No symmetry found



   Cartesian axes

     site n.     atom                  positions (alat units)
         1           H   tau(   1) = (   0.1428179   0.1931112   0.4394609  )
         2           H   tau(   2) = (   0.1706976   0.2090603   0.4149257  )
         3           H   tau(   3) = (   0.2232872   0.2869088   0.3475353  )
         4           H   tau(   4) = (   0.2411581   0.2624236   0.3737676  )
         5           H   tau(   5) = (   0.3517035   0.3152627   0.4577312  )
         6           H   tau(   6) = (   0.3282915   0.2852864   0.4617247  )
         7           H   tau(   7) = (   0.4191689   0.2528142   0.3479096  )
         8           H   tau(   8) = (   0.3818545   0.2382628   0.3611382  )
         9           H   tau(   9) = (   0.2861849   0.3249969   0.4591788  )
        10           H   tau(  10) = (   0.2555098   0.3534506   0.4588294  )
        11           H   tau(  11) = (   0.1906402   0.2860352   0.4730812  )
        12           H   tau(  12) = (   0.1774367   0.2500187   0.4605017  )
        13           H   tau(  13) = (   0.3409210   0.1842756   0.4283789  )
        14           H   tau(  14) = (   0.3411456   0.2004243   0.4641458  )
        15           H   tau(  15) = (   0.3832273   0.2841133   0.3766130  )
        16           H   tau(  16) = (   0.3819543   0.3073755   0.4108074  )
        17           H   tau(  17) = (   0.2853363   0.2330213   0.4628728  )
        18           H   tau(  18) = (   0.3053788   0.2460252   0.4969175  )
        19           H   tau(  19) = (   0.2367653   0.2358917   0.3038562  )
        20           H   tau(  20) = (   0.2619244   0.2057407   0.3134906  )
        21           H   tau(  21) = (   0.3143392   0.2509422   0.2871584  )
        22           H   tau(  22) = (   0.3406464   0.2641957   0.3142144  )
        23           H   tau(  23) = (   0.2966430   0.1552727   0.4275303  )
        24           H   tau(  24) = (   0.2791713   0.1906402   0.4232372  )
        25           H   tau(  25) = (   0.2801697   0.2856608   0.3956321  )
        26           H   tau(  26) = (   0.2557844   0.3005366   0.4232123  )
        27           H   tau(  27) = (   0.2584301   0.2435043   0.4241857  )
        28           H   tau(  28) = (   0.2344440   0.2264071   0.4554599  )
        29           H   tau(  29) = (   0.3088731   0.2210658   0.2346936  )
        30           H   tau(  30) = (   0.2854861   0.2181954   0.2717085  )
        31           H   tau(  31) = (   0.1998752   0.2264320   0.3626607  )
        32           H   tau(  32) = (   0.2211906   0.1971297   0.3766380  )
        33           H   tau(  33) = (   0.3999002   0.2859603   0.4539124  )
        34           H   tau(  34) = (   0.4081118   0.3238238   0.4639960  )
        35           H   tau(  35) = (   0.3262449   0.2349931   0.3614876  )
        36           H   tau(  36) = (   0.3421440   0.2000749   0.3418195  )
        37           H   tau(  37) = (   0.4019718   0.2462498   0.4183202  )
        38           H   tau(  38) = (   0.3903407   0.2224635   0.4480469  )
        39           H   tau(  39) = (   0.2932485   0.1729939   0.3279421  )
        40           H   tau(  40) = (   0.2892799   0.1759890   0.3688257  )
        41           H   tau(  41) = (   0.3062773   0.2934981   0.3417447  )
        42           H   tau(  42) = (   0.3321353   0.3030575   0.3729939  )
        43           H   tau(  43) = (   0.3514788   0.1546487   0.2991389  )
        44           H   tau(  44) = (   0.3244727   0.1833271   0.2888307  )
        45           O   tau(  45) = (   0.1564957   0.2134781   0.4359915  )
        46           O   tau(  46) = (   0.2264320   0.2631973   0.3523524  )
        47           O   tau(  47) = (   0.3263946   0.3103706   0.4626981  )
        48           O   tau(  48) = (   0.4041932   0.2512667   0.3677524  )
        49           O   tau(  49) = (   0.2619493   0.3293648   0.4557095  )
        50           O   tau(  50) = (   0.1952327   0.2623237   0.4732809  )
        51           O   tau(  51) = (   0.3566455   0.1920629   0.4449270  )
        52           O   tau(  52) = (   0.3718707   0.3055285   0.3860726  )
        53           O   tau(  53) = (   0.3087982   0.2340197   0.4763509  )
        54           O   tau(  54) = (   0.2549607   0.2204168   0.2944964  )
        55           O   tau(  55) = (   0.3186322   0.2698864   0.3053788  )
        56           O   tau(  56) = (   0.2968177   0.1755647   0.4113815  )
        57           O   tau(  57) = (   0.2603270   0.2806689   0.4092100  )
        58           O   tau(  58) = (   0.2576064   0.2217896   0.4420567  )
        59           O   tau(  59) = (   0.3098215   0.2176214   0.2605766  )
        60           O   tau(  60) = (   0.1967054   0.2052415   0.3762636  )
        61           O   tau(  61) = (   0.3926370   0.3107950   0.4520904  )
        62           O   tau(  62) = (   0.3467116   0.2226881   0.3549981  )
        63           O   tau(  63) = (   0.4000250   0.2466991   0.4454262  )
        64           O   tau(  64) = (   0.2767752   0.1791339   0.3455135  )
        65           O   tau(  65) = (   0.3078248   0.2988893   0.3669038  )
        66           O   tau(  66) = (   0.3352802   0.1700736   0.3073506  )

     number of k points=     1
                       cart. coord. in units 2pi/alat
        k(    1) = (   0.0000000   0.0000000   0.0000000), wk =   2.0000000

     Dense  grid:  4816379 G-vectors     FFT dimensions: ( 270, 270, 270)

     Estimated max dynamical RAM per process >     612.29 MB

     Estimated total dynamical RAM >      19.13 GB

     Check: negative core charge=   -0.000006

     Initial potential from superposition of free atoms

     starting charge     175.9995, renormalised to     176.0000

     negative rho (up, down):  3.722E-01 0.000E+00
     Starting wfcs are  132 randomized atomic wfcs
     Checking if some PAW data can be deallocated... 

     total cpu time spent up to now is        8.7 secs

     Self-consistent Calculation

     iteration #  1     ecut=    30.00 Ry     beta= 0.50
     Davidson diagonalization with overlap
     ethr =  1.00E-02,  avg # of iterations =  2.0

     negative rho (up, down):  4.392E-01 0.000E+00

     total cpu time spent up to now is       17.7 secs

     total energy              =    -965.74969285 Ry
     estimated scf accuracy    <       6.90997542 Ry

     iteration #  2     ecut=    30.00 Ry     beta= 0.50
     Davidson diagonalization with overlap
     ethr =  3.93E-03,  avg # of iterations =  2.0

     negative rho (up, down):  4.595E-01 0.000E+00

     total cpu time spent up to now is       27.2 secs

     total energy              =    -967.69776268 Ry
     estimated scf accuracy    <       1.01441844 Ry

     iteration #  3     ecut=    30.00 Ry     beta= 0.50
     Davidson diagonalization with overlap
     ethr =  5.76E-04,  avg # of iterations =  2.0

     negative rho (up, down):  5.049E-01 0.000E+00

     total cpu time spent up to now is       35.5 secs

     total energy              =    -967.74854092 Ry
     estimated scf accuracy    <       0.13182305 Ry

     iteration #  4     ecut=    30.00 Ry     beta= 0.50
     Davidson diagonalization with overlap
     ethr =  7.49E-05,  avg # of iterations =  3.0

     negative rho (up, down):  5.044E-01 0.000E+00

     total cpu time spent up to now is       45.3 secs

     total energy              =    -967.77320135 Ry
     estimated scf accuracy    <       0.04394360 Ry

     iteration #  5     ecut=    30.00 Ry     beta= 0.50
     Davidson diagonalization with overlap
     ethr =  2.50E-05,  avg # of iterations =  2.0

     negative rho (up, down):  5.034E-01 0.000E+00

     total cpu time spent up to now is       53.2 secs

     total energy              =    -967.77425064 Ry
     estimated scf accuracy    <       0.00750594 Ry

     iteration #  6     ecut=    30.00 Ry     beta= 0.50
     Davidson diagonalization with overlap
     ethr =  4.26E-06,  avg # of iterations =  2.0

     negative rho (up, down):  5.026E-01 0.000E+00

     total cpu time spent up to now is       61.4 secs

     total energy              =    -967.77445679 Ry
     estimated scf accuracy    <       0.00148054 Ry

     iteration #  7     ecut=    30.00 Ry     beta= 0.50
     Davidson diagonalization with overlap
     ethr =  8.41E-07,  avg # of iterations =  2.0

     negative rho (up, down):  5.023E-01 0.000E+00

     total cpu time spent up to now is       70.4 secs

     total energy              =    -967.77473588 Ry
     estimated scf accuracy    <       0.00004386 Ry

     iteration #  8     ecut=    30.00 Ry     beta= 0.50
     Davidson diagonalization with overlap
     ethr =  2.49E-08,  avg # of iterations =  3.0

     negative rho (up, down):  5.024E-01 0.000E+00

     total cpu time spent up to now is       80.9 secs

     total energy              =    -967.77475658 Ry
     estimated scf accuracy    <       0.00002068 Ry

     iteration #  9     ecut=    30.00 Ry     beta= 0.50
     Davidson diagonalization with overlap
     ethr =  1.17E-08,  avg # of iterations =  2.0

     negative rho (up, down):  5.024E-01 0.000E+00

     total cpu time spent up to now is       90.3 secs

     total energy              =    -967.77475738 Ry
     estimated scf accuracy    <       0.00000322 Ry

     iteration # 10     ecut=    30.00 Ry     beta= 0.50
     Davidson diagonalization with overlap
     ethr =  1.83E-09,  avg # of iterations =  2.0

     negative rho (up, down):  5.024E-01 0.000E+00

     total cpu time spent up to now is       99.9 secs

     End of self-consistent calculation

          k = 0.0000 0.0000 0.0000 (602235 PWs)   bands (ev):

   -26.5085 -25.7548 -25.6942 -25.6400 -25.5162 -25.4969 -25.2095 -25.1238
   -25.0050 -24.9636 -24.8224 -24.7318 -24.7100 -24.6168 -24.5348 -24.5041
   -24.4117 -24.0367 -23.9374 -23.8901 -23.8375 -23.2420 -14.7395 -13.9444
   -13.6966 -13.5576 -13.4938 -13.4012 -13.3694 -13.2126 -12.9962 -12.8680
   -12.8089 -12.6585 -12.5049 -12.4548 -12.3759 -12.2775 -12.1661 -12.1219
   -11.9423 -11.8206 -11.4339 -11.2693 -11.1806 -10.8664 -10.7198 -10.4388
   -10.2671 -10.1474  -9.9147  -9.7483  -9.6371  -9.6095  -9.3795  -9.3578
    -9.2052  -9.0753  -8.9622  -8.9335  -8.7439  -8.6199  -8.5060  -8.4588
    -8.3688  -8.3215  -7.9977  -7.8776  -7.7609  -7.7001  -7.5940  -7.5002
    -7.4327  -7.3672  -7.2953  -7.1956  -7.0923  -7.0097  -6.9606  -6.9265
    -6.8484  -6.8303  -6.7795  -6.5587  -6.3960  -6.3460  -6.3149  -5.9592

     highest occupied level (ev):    -5.9592

!    total energy              =    -967.77475794 Ry
     estimated scf accuracy    <       0.00000015 Ry

     The total energy is the sum of the following terms:
     one-electron contribution =   -5873.46028018 Ry
     hartree contribution      =    2971.90593862 Ry
     xc contribution           =    -193.54436487 Ry
     ewald contribution        =    2336.63159372 Ry
     one-center paw contrib.   =    -209.30764523 Ry

     convergence has been achieved in  10 iterations

     negative rho (up, down):  5.024E-01 0.000E+00

     Forces acting on atoms (cartesian axes, Ry/au):

     atom    1 type  1   force =     0.01823849    0.02270865   -0.00581906
     atom    2 type  1   force =    -0.02773653    0.00456203    0.03653981
     atom    3 type  1   force =     0.00318255    0.00135276    0.00841508
     atom    4 type  1   force =    -0.04328276    0.03149248   -0.04822154
     atom    5 type  1   force =    -0.06632798    0.00123489    0.01676260
     atom    6 type  1   force =    -0.02363781    0.02649718    0.00479320
     atom    7 type  1   force =    -0.02551806   -0.00598193    0.02707315
     atom    8 type  1   force =     0.04956755    0.01799761    0.00445347
     atom    9 type  1   force =     0.01936542    0.01869642    0.00462131
     atom   10 type  1   force =     0.03326026   -0.05152659   -0.00615734
     atom   11 type  1   force =    -0.00749938    0.01245295   -0.00831204
     atom   12 type  1   force =     0.01191672    0.01899517    0.01474437
     atom   13 type  1   force =    -0.02351226    0.00125486   -0.02723850
     atom   14 type  1   force =     0.03762055   -0.00870267   -0.06189213
     atom   15 type  1   force =    -0.01105436    0.05578481    0.02464715
     atom   16 type  1   force =    -0.04181344    0.00253166   -0.09520318
     atom   17 type  1   force =     0.05655298   -0.00685796    0.04545088
     atom   18 type  1   force =    -0.00951486    0.01065437    0.02226435
     atom   19 type  1   force =     0.06214498   -0.03638895   -0.01642130
     atom   20 type  1   force =    -0.01802472    0.01510616    0.01326233
     atom   21 type  1   force =     0.02110887    0.06714145    0.05622820
     atom   22 type  1   force =     0.00398959   -0.00490052   -0.00031507
     atom   23 type  1   force =     0.00098861    0.05913157   -0.06261314
     atom   24 type  1   force =     0.02963073   -0.01718660   -0.02130297
     atom   25 type  1   force =     0.04278345    0.02233001   -0.02783364
     atom   26 type  1   force =    -0.00107876    0.01531177    0.02150193
     atom   27 type  1   force =    -0.00807911   -0.04409897    0.07289979
     atom   28 type  1   force =     0.10055327   -0.01352227   -0.06345661
     atom   29 type  1   force =    -0.00979634   -0.01464732    0.10594692
     atom   30 type  1   force =     0.02678044    0.01343023   -0.04358073
     atom   31 type  1   force =    -0.00863980   -0.02013189    0.02498166
     atom   32 type  1   force =    -0.07675770    0.01341440    0.00217359
     atom   33 type  1   force =    -0.02165869    0.02091991    0.00199526
     atom   34 type  1   force =     0.05108132    0.04443564    0.03512091
     atom   35 type  1   force =     0.00750339   -0.01939828   -0.01391938
     atom   36 type  1   force =     0.00227830    0.08776316    0.04019859
     atom   37 type  1   force =    -0.00025759    0.00950089    0.12035902
     atom   38 type  1   force =     0.00407568    0.06854533    0.00097960
     atom   39 type  1   force =    -0.00090517   -0.01535712    0.03093134
     atom   40 type  1   force =    -0.04398173    0.00772736   -0.06774304
     atom   41 type  1   force =     0.01080891    0.00745894    0.06020077
     atom   42 type  1   force =    -0.00764510   -0.00057294    0.00260354
     atom   43 type  1   force =     0.02284811   -0.02315190   -0.02710915
     atom   44 type  1   force =     0.03494107   -0.01181213   -0.00816155
     atom   45 type  2   force =     0.02266045   -0.02012758   -0.03867852
     atom   46 type  2   force =     0.02574539   -0.02474848    0.02791938
     atom   47 type  2   force =     0.07169794   -0.03503138   -0.01242190
     atom   48 type  2   force =    -0.02208495   -0.03617814   -0.03153808
     atom   49 type  2   force =    -0.04987251    0.03122985   -0.00277638
     atom   50 type  2   force =    -0.00357319   -0.04940062   -0.01152450
     atom   51 type  2   force =    -0.00428327    0.02195722    0.09509847
     atom   52 type  2   force =     0.05219116   -0.02668251    0.06390565
     atom   53 type  2   force =    -0.01998931   -0.00737912   -0.04376256
     atom   54 type  2   force =    -0.04862292    0.01525158    0.01726061
     atom   55 type  2   force =    -0.01594050   -0.05073448   -0.06526640
     atom   56 type  2   force =    -0.03623761   -0.04704430    0.07953952
     atom   57 type  2   force =    -0.03130057   -0.05921190    0.00046136
     atom   58 type  2   force =    -0.11443441    0.08786334   -0.02045117
     atom   59 type  2   force =    -0.03059575    0.00000549   -0.05479786
     atom   60 type  2   force =     0.07917330    0.00450531   -0.01799929
     atom   61 type  2   force =    -0.02745695   -0.06815208   -0.03402154
     atom   62 type  2   force =    -0.00396954   -0.06906870   -0.03416653
     atom   63 type  2   force =    -0.00014386   -0.07924061   -0.13313701
     atom   64 type  2   force =     0.03878264   -0.00782836    0.04841286
     atom   65 type  2   force =    -0.00559181   -0.01506725   -0.05072639
     atom   66 type  2   force =    -0.05065282    0.05088808    0.02482180
     The non-local contrib.  to forces
     atom    1 type  1   force =     0.05875082    0.08388393   -0.01670485
     atom    2 type  1   force =    -0.05050510    0.01218032    0.07302483
     atom    3 type  1   force =     0.01548800   -0.10655396    0.02400747
     atom    4 type  1   force =    -0.04812911    0.00462465   -0.07075338
     atom    5 type  1   force =    -0.07748111   -0.01604977    0.01483971
     atom    6 type  1   force =    -0.00633731    0.09837771    0.00353467
     atom    7 type  1   force =    -0.06344346   -0.00770061    0.07938510
     atom    8 type  1   force =     0.06111484    0.03523859    0.01483688
     atom    9 type  1   force =    -0.09841454    0.02206525   -0.01365891
     atom   10 type  1   force =     0.02886328   -0.09341502   -0.01191898
     atom   11 type  1   force =     0.01831881   -0.11266161   -0.00165200
     atom   12 type  1   force =     0.06862245    0.05306914    0.04955486
     atom   13 type  1   force =     0.07334655    0.03743249    0.08005918
     atom   14 type  1   force =     0.04967484   -0.02926073   -0.06471952
     atom   15 type  1   force =    -0.03525818    0.06624035    0.03140891
     atom   16 type  1   force =    -0.02757118   -0.00772428   -0.06902952
     atom   17 type  1   force =     0.05231985    0.00216939    0.03194838
     atom   18 type  1   force =     0.01366419   -0.05717684   -0.09863778
     atom   19 type  1   force =     0.06582468   -0.05619395   -0.03251667
     atom   20 type  1   force =    -0.02865941    0.05990875   -0.07547443
     atom   21 type  1   force =     0.01390524    0.05260694    0.05296953
     atom   22 type  1   force =    -0.09922884    0.02395356   -0.04149490
     atom   23 type  1   force =    -0.00084688    0.06930513   -0.05417932
     atom   24 type  1   force =     0.05658294   -0.04948481   -0.03724388
     atom   25 type  1   force =    -0.08550033   -0.02055470    0.05949299
     atom   26 type  1   force =     0.02026974   -0.08283960   -0.05943618
     atom   27 type  1   force =    -0.00261698   -0.04318963    0.03681552
     atom   28 type  1   force =     0.06315754   -0.01230821   -0.03743444
     atom   29 type  1   force =     0.00002586   -0.01133147    0.08448431
     atom   30 type  1   force =     0.06253593   -0.00115122   -0.03060584
     atom   31 type  1   force =    -0.01016929   -0.08021955    0.05125874
     atom   32 type  1   force =    -0.08458929    0.03028081   -0.00155243
     atom   33 type  1   force =    -0.02155198    0.08112184   -0.00474091
     atom   34 type  1   force =    -0.08203694   -0.07219066   -0.06390362
     atom   35 type  1   force =     0.08547544   -0.05548451   -0.02919580
     atom   36 type  1   force =     0.01023278    0.06801429    0.03941137
     atom   37 type  1   force =    -0.00594946    0.00061589    0.07324089
     atom   38 type  1   force =     0.03081554    0.07698251   -0.00878196
     atom   39 type  1   force =    -0.06670306    0.02604331    0.07351233
     atom   40 type  1   force =    -0.03350579    0.00917913   -0.06822033
     atom   41 type  1   force =     0.00801593    0.01885845    0.08714781
     atom   42 type  1   force =    -0.08677581   -0.01657023   -0.02515644
     atom   43 type  1   force =    -0.08269761    0.07930310    0.03768747
     atom   44 type  1   force =     0.04362005   -0.05344953    0.06935379
     atom   45 type  2   force =    -0.04961747   -1.82437575   -1.05626437
     atom   46 type  2   force =     0.61312751    1.63447947    0.91976448
     atom   47 type  2   force =     1.42779306   -1.32267541   -0.39838996
     atom   48 type  2   force =    -0.20661655   -0.49191930   -1.83691049
     atom   49 type  2   force =     1.10782808    1.53793179    0.30503745
     atom   50 type  2   force =    -1.60531779    1.02153298   -1.03010934
     atom   51 type  2   force =    -2.00577606    0.00878535    0.04402992
     atom   52 type  2   force =     1.04719416   -1.24743520    0.89229272
     atom   53 type  2   force =    -1.40921663    0.86860918    0.93249536
     atom   54 type  2   force =    -0.52936016    0.10318216    1.68184467
     atom   55 type  2   force =     1.35571786   -1.52944291   -0.36145096
     atom   56 type  2   force =    -1.08461438   -0.54877440    1.64200798
     atom   57 type  2   force =     0.83039754    1.15866695    0.05572675
     atom   58 type  2   force =    -1.14215294    1.21919807   -0.03506126
     atom   59 type  2   force =    -1.39369037    0.22709176   -1.13172841
     atom   60 type  2   force =     1.86652482    0.89508952   -0.71110900
     atom   61 type  2   force =     1.53164249   -0.35481090    0.96846653
     atom   62 type  2   force =    -1.59240940   -0.44401311   -0.35065941
     atom   63 type  2   force =    -0.43688041   -1.23813400   -1.39424779
     atom   64 type  2   force =     1.92872190   -0.42857126    0.03121770
     atom   65 type  2   force =     1.25725855   -0.26434761   -1.16105019
     atom   66 type  2   force =     0.51847362   -0.26871847   -1.83701151
     The ionic contribution  to forces
     atom    1 type  1   force =    -3.64182889   -3.59934130    1.10664832
     atom    2 type  1   force =    -0.64244714   -1.19194057   -1.76547557
     atom    3 type  1   force =    -2.28234041    4.88327132   -1.96188179
     atom    4 type  1   force =    -0.15425503    0.43421644    1.17556938
     atom    5 type  1   force =     2.56046795    2.46847018    1.05324334
     atom    6 type  1   force =     0.63208855   -2.11131225    1.58799926
     atom    7 type  1   force =     4.41674933    0.25476804   -3.70181982
     atom    8 type  1   force =     0.64493783   -1.51573417   -1.35401405
     atom    9 type  1   force =     2.07220476    1.66844078    1.79342099
     atom   10 type  1   force =    -1.72436277    5.17105845    1.26363709
     atom   11 type  1   force =    -2.19711066    4.42608386    1.29449042
     atom   12 type  1   force =    -3.81571459   -0.92465617   -0.18001957
     atom   13 type  1   force =    -0.56820827   -3.01282406   -1.45756118
     atom   14 type  1   force =    -0.42160849   -0.85192059    3.97881402
     atom   15 type  1   force =     2.59397718   -0.35635057   -1.65103003
     atom   16 type  1   force =     2.34784366    2.02337198    1.70274837
     atom   17 type  1   force =    -1.61435674   -0.25607249    1.45861000
     atom   18 type  1   force =    -0.36644829    1.53242288    5.69898748
     atom   19 type  1   force =    -3.81990100    1.95881668   -1.06326329
     atom   20 type  1   force =    -0.65589854   -2.42095603    0.44036397
     atom   21 type  1   force =     0.11825946   -0.35872621   -3.61139108
     atom   22 type  1   force =     4.21361956    0.41768320   -0.87386321
     atom   23 type  1   force =    -0.13385133   -4.99985603    2.70683247
     atom   24 type  1   force =    -2.14730111   -0.74034483    1.76999715
     atom   25 type  1   force =     1.69001910    1.76707101   -1.45945639
     atom   26 type  1   force =    -2.02911636    3.88561904    1.76049009
     atom   27 type  1   force =    -0.93218475    0.87499352   -0.50421270
     atom   28 type  1   force =    -3.34818611   -0.59718720    2.93721990
     atom   29 type  1   force =     0.15132352    0.26105982   -5.37279113
     atom   30 type  1   force =    -2.23300236   -0.35574195   -1.98544642
     atom   31 type  1   force =    -2.23613621    1.84039043   -2.36424432
     atom   32 type  1   force =     1.05054102   -2.55562133   -0.17159201
     atom   33 type  1   force =     2.78719412   -1.31153594    1.83068910
     atom   34 type  1   force =     4.11901557    3.59648328    3.06554217
     atom   35 type  1   force =    -2.02133205    1.22376839    0.53647908
     atom   36 type  1   force =     1.14248154   -3.27809486   -1.63813392
     atom   37 type  1   force =     2.52602709   -0.57805211   -1.75678569
     atom   38 type  1   force =     1.31775850   -3.21204166    1.67268476
     atom   39 type  1   force =     1.27825307   -3.03626310   -2.93413845
     atom   40 type  1   force =     0.77034707   -2.46030704    1.55132344
     atom   41 type  1   force =    -0.55816362    1.65557772   -3.77288083
     atom   42 type  1   force =     2.61004604    2.51476479   -0.14270455
     atom   43 type  1   force =     3.66642382   -4.21210476   -2.38644431
     atom   44 type  1   force =    -0.34189341   -0.29389440   -3.86416061
     atom   45 type  2   force =   -12.21346447   -0.96831427    5.20945006
     atom   46 type  2   force =   -11.86203686    3.82213580   -8.60041913
     atom   47 type  2   force =    -0.10518100   11.57645992   10.48913339
     atom   48 type  2   force =    16.05217961   -0.47113057   -2.52997939
     atom   49 type  2   force =    -8.00187874   10.68491725    6.75988778
     atom   50 type  2   force =    -6.55397041    1.61799760   11.11262364
     atom   51 type  2   force =    11.50595036  -10.94233614    7.34920162
     atom   52 type  2   force =     6.82367272   13.83263754   -4.68420123
     atom   53 type  2   force =     3.82337623   -3.88173132   13.30572920
     atom   54 type  2   force =    -9.06317188   -1.43412345  -14.43061889
     atom   55 type  2   force =     0.46951877   10.68004985  -11.93472403
     atom   56 type  2   force =     1.32304855  -13.38625546    1.04653422
     atom   57 type  2   force =    -8.13432392    5.20027513    1.34621330
     atom   58 type  2   force =    -6.03052609   -7.89912518    8.07475778
     atom   59 type  2   force =     4.44953529   -2.31539219  -14.99113507
     atom   60 type  2   force =   -14.56531283   -8.28995358   -2.02722053
     atom   61 type  2   force =     8.45709688   10.14651256    6.04879074
     atom   62 type  2   force =     9.51026593   -4.48826808   -3.03207605
     atom   63 type  2   force =    13.56305483   -1.39158764    9.37582510
     atom   64 type  2   force =    -7.77391298  -11.45615910   -3.48193737
     atom   65 type  2   force =    -2.61814555   12.48615061   -3.51748955
     atom   66 type  2   force =     6.12029494  -11.75021148   -5.30082545
     The local contribution  to forces
     atom    1 type  1   force =     3.60130909    3.53810336   -1.09579669
     atom    2 type  1   force =     0.66523221    1.18427677    1.72894085
     atom    3 type  1   force =     2.27004166   -4.77538861    1.94625860
     atom    4 type  1   force =     0.15911121   -0.40738625   -1.15306312
     atom    5 type  1   force =    -2.54931452   -2.45123446   -1.05135532
     atom    6 type  1   force =    -0.64938097    2.03938606   -1.58677845
     atom    7 type  1   force =    -4.37882567   -0.25308681    3.64947539
     atom    8 type  1   force =    -0.65647876    1.49846385    1.34359849
     atom    9 type  1   force =    -1.95440679   -1.67185213   -1.77517796
     atom   10 type  1   force =     1.72876368   -5.12919518   -1.25790974
     atom   11 type  1   force =     2.17129009   -4.30098807   -1.30118832
     atom   12 type  1   force =     3.75900155    0.89054080    0.14516487
     atom   13 type  1   force =     0.47133804    2.97660540    1.35022111
     atom   14 type  1   force =     0.40954741    0.87243945   -3.97601594
     atom   15 type  1   force =    -2.56976724    0.34584408    1.64423377
     atom   16 type  1   force =    -2.36207943   -2.01316528   -1.72895798
     atom   17 type  1   force =     1.61856707    0.24701113   -1.44515182
     atom   18 type  1   force =     0.34326416   -1.46461290   -5.57809916
     atom   19 type  1   force =     3.81622611   -1.93905244    1.07933099
     atom   20 type  1   force =     0.66653934    2.37611941   -0.35166002
     atom   21 type  1   force =    -0.11105142    0.37321496    3.61461413
     atom   22 type  1   force =    -4.11039142   -0.44658159    0.91501492
     atom   23 type  1   force =     0.13569167    4.98963935   -2.71529026
     atom   24 type  1   force =     2.12034809    0.77260755   -1.75408174
     atom   25 type  1   force =    -1.56172914   -1.72422030    1.37209761
     atom   26 type  1   force =     2.00777796   -3.78749976   -1.67958955
     atom   27 type  1   force =     0.92672686   -0.87594693    0.54027062
     atom   28 type  1   force =     3.38559417    0.59593515   -2.96327936
     atom   29 type  1   force =    -0.16114357   -0.26441137    5.39420873
     atom   30 type  1   force =     2.19724776    0.37028811    1.97244344
     atom   31 type  1   force =     2.23767992   -1.78033280    2.33792814
     atom   32 type  1   force =    -1.04269110    2.53872076    0.17528178
     atom   33 type  1   force =    -2.78728839    1.25127697   -1.82398467
     atom   34 type  1   force =    -3.98587710   -3.47989479   -2.96654044
     atom   35 type  1   force =     1.94335893   -1.18771642   -0.52123813
     atom   36 type  1   force =    -1.15043953    3.29780638    1.63888753
     atom   37 type  1   force =    -2.52033554    0.58689842    1.80386752
     atom   38 type  1   force =    -1.34449176    3.20357186   -1.66296456
     atom   39 type  1   force =    -1.21244101    2.99482228    2.89151485
     atom   40 type  1   force =    -0.78080684    2.45881478   -1.55087267
     atom   41 type  1   force =     0.56096470   -1.66702207    3.74588631
     atom   42 type  1   force =    -2.53089790   -2.49880972    0.17043103
     atom   43 type  1   force =    -3.56086737    4.10960281    2.32160255
     atom   44 type  1   force =     0.33321361    0.33549641    3.78659993
     atom   45 type  2   force =    12.28452389    2.75387328   -4.20232546
     atom   46 type  2   force =    11.28036943   -5.46442117    7.71776117
     atom   47 type  2   force =    -1.23614253  -10.30146903  -10.10685249
     atom   48 type  2   force =   -15.86834578    0.92156029    4.31605694
     atom   49 type  2   force =     6.85459040  -12.17534218   -7.06444240
     atom   50 type  2   force =     8.13956425   -2.67836341  -10.10383580
     atom   51 type  2   force =    -9.52422317   10.95511718   -7.29644885
     atom   52 type  2   force =    -7.80869657  -12.62461068    3.86511478
     atom   53 type  2   force =    -2.44831927    3.01382179  -14.27197384
     atom   54 type  2   force =     9.53854942    1.34767603   12.78278494
     atom   55 type  2   force =    -1.82751904   -9.21620603   12.22721594
     atom   56 type  2   force =    -0.28601136   13.88190343   -2.59264155
     atom   57 type  2   force =     7.27944079   -6.40686123   -1.40079033
     atom   58 type  2   force =     7.04614441    6.78059610   -8.06102391
     atom   59 type  2   force =    -3.10040824    2.09113827   16.05497465
     atom   60 type  2   force =    12.79656520    7.40834104    2.71358880
     atom   61 type  2   force =   -10.00038491   -9.86296338   -7.04135265
     atom   62 type  2   force =    -7.93829028    4.85770884    3.34510082
     atom   63 type  2   force =   -13.12962808    2.53756290   -8.12931306
     atom   64 type  2   force =     5.90354335   11.87239447    3.49967172
     atom   65 type  2   force =     1.36764278  -12.23950318    4.61585817
     atom   66 type  2   force =    -6.68437476   12.06654057    7.14391242
     The core correction contribution to forces
     atom    1 type  1   force =     0.00000000    0.00000000    0.00000000
     atom    2 type  1   force =     0.00000000    0.00000000    0.00000000
     atom    3 type  1   force =     0.00000000    0.00000000    0.00000000
     atom    4 type  1   force =     0.00000000    0.00000000    0.00000000
     atom    5 type  1   force =     0.00000000    0.00000000    0.00000000
     atom    6 type  1   force =     0.00000000    0.00000000    0.00000000
     atom    7 type  1   force =     0.00000000    0.00000000    0.00000000
     atom    8 type  1   force =     0.00000000    0.00000000    0.00000000
     atom    9 type  1   force =     0.00000000    0.00000000    0.00000000
     atom   10 type  1   force =     0.00000000    0.00000000    0.00000000
     atom   11 type  1   force =     0.00000000    0.00000000    0.00000000
     atom   12 type  1   force =     0.00000000    0.00000000    0.00000000
     atom   13 type  1   force =     0.00000000    0.00000000    0.00000000
     atom   14 type  1   force =     0.00000000    0.00000000    0.00000000
     atom   15 type  1   force =     0.00000000    0.00000000    0.00000000
     atom   16 type  1   force =     0.00000000    0.00000000    0.00000000
     atom   17 type  1   force =     0.00000000    0.00000000    0.00000000
     atom   18 type  1   force =     0.00000000    0.00000000    0.00000000
     atom   19 type  1   force =     0.00000000    0.00000000    0.00000000
     atom   20 type  1   force =     0.00000000    0.00000000    0.00000000
     atom   21 type  1   force =     0.00000000    0.00000000    0.00000000
     atom   22 type  1   force =     0.00000000    0.00000000    0.00000000
     atom   23 type  1   force =     0.00000000    0.00000000    0.00000000
     atom   24 type  1   force =     0.00000000    0.00000000    0.00000000
     atom   25 type  1   force =     0.00000000    0.00000000    0.00000000
     atom   26 type  1   force =     0.00000000    0.00000000    0.00000000
     atom   27 type  1   force =     0.00000000    0.00000000    0.00000000
     atom   28 type  1   force =     0.00000000    0.00000000    0.00000000
     atom   29 type  1   force =     0.00000000    0.00000000    0.00000000
     atom   30 type  1   force =     0.00000000    0.00000000    0.00000000
     atom   31 type  1   force =     0.00000000    0.00000000    0.00000000
     atom   32 type  1   force =     0.00000000    0.00000000    0.00000000
     atom   33 type  1   force =     0.00000000    0.00000000    0.00000000
     atom   34 type  1   force =     0.00000000    0.00000000    0.00000000
     atom   35 type  1   force =     0.00000000    0.00000000    0.00000000
     atom   36 type  1   force =     0.00000000    0.00000000    0.00000000
     atom   37 type  1   force =     0.00000000    0.00000000    0.00000000
     atom   38 type  1   force =     0.00000000    0.00000000    0.00000000
     atom   39 type  1   force =     0.00000000    0.00000000    0.00000000
     atom   40 type  1   force =     0.00000000    0.00000000    0.00000000
     atom   41 type  1   force =     0.00000000    0.00000000    0.00000000
     atom   42 type  1   force =     0.00000000    0.00000000    0.00000000
     atom   43 type  1   force =     0.00000000    0.00000000    0.00000000
     atom   44 type  1   force =     0.00000000    0.00000000    0.00000000
     atom   45 type  2   force =     0.00121717    0.01855123    0.01036369
     atom   46 type  2   force =    -0.00566835   -0.01691541   -0.00913695
     atom   47 type  2   force =    -0.01469654    0.01249194    0.00362562
     atom   48 type  2   force =     0.00066195    0.00528126    0.01922324
     atom   49 type  2   force =    -0.01034850   -0.01627636   -0.00330166
     atom   50 type  2   force =     0.01607932   -0.01053973    0.00971305
     atom   51 type  2   force =     0.01962747    0.00034859   -0.00177455
     atom   52 type  2   force =    -0.00992942    0.01258525   -0.00932615
     atom   53 type  2   force =     0.01405102   -0.00802123   -0.00998041
     atom   54 type  2   force =     0.00536845   -0.00154780   -0.01667246
     atom   55 type  2   force =    -0.01359043    0.01475248    0.00367494
     atom   56 type  2   force =     0.01132339    0.00604306   -0.01631255
     atom   57 type  2   force =    -0.00673945   -0.01119120   -0.00073558
     atom   58 type  2   force =     0.01209624   -0.01279663    0.00087879
     atom   59 type  2   force =     0.01393298   -0.00283801    0.01306227
     atom   60 type  2   force =    -0.01845169   -0.00892804    0.00665194
     atom   61 type  2   force =    -0.01566902    0.00303155   -0.00986098
     atom   62 type  2   force =     0.01638160    0.00550759    0.00345473
     atom   63 type  2   force =     0.00328406    0.01284030    0.01449114
     atom   64 type  2   force =    -0.01944521    0.00444461   -0.00059562
     atom   65 type  2   force =    -0.01226473    0.00258439    0.01187480
     atom   66 type  2   force =    -0.00502353    0.00320555    0.01858572
     The Hubbard contrib.    to forces
     atom    1 type  1   force =     0.00000000    0.00000000    0.00000000
     atom    2 type  1   force =     0.00000000    0.00000000    0.00000000
     atom    3 type  1   force =     0.00000000    0.00000000    0.00000000
     atom    4 type  1   force =     0.00000000    0.00000000    0.00000000
     atom    5 type  1   force =     0.00000000    0.00000000    0.00000000
     atom    6 type  1   force =     0.00000000    0.00000000    0.00000000
     atom    7 type  1   force =     0.00000000    0.00000000    0.00000000
     atom    8 type  1   force =     0.00000000    0.00000000    0.00000000
     atom    9 type  1   force =     0.00000000    0.00000000    0.00000000
     atom   10 type  1   force =     0.00000000    0.00000000    0.00000000
     atom   11 type  1   force =     0.00000000    0.00000000    0.00000000
     atom   12 type  1   force =     0.00000000    0.00000000    0.00000000
     atom   13 type  1   force =     0.00000000    0.00000000    0.00000000
     atom   14 type  1   force =     0.00000000    0.00000000    0.00000000
     atom   15 type  1   force =     0.00000000    0.00000000    0.00000000
     atom   16 type  1   force =     0.00000000    0.00000000    0.00000000
     atom   17 type  1   force =     0.00000000    0.00000000    0.00000000
     atom   18 type  1   force =     0.00000000    0.00000000    0.00000000
     atom   19 type  1   force =     0.00000000    0.00000000    0.00000000
     atom   20 type  1   force =     0.00000000    0.00000000    0.00000000
     atom   21 type  1   force =     0.00000000    0.00000000    0.00000000
     atom   22 type  1   force =     0.00000000    0.00000000    0.00000000
     atom   23 type  1   force =     0.00000000    0.00000000    0.00000000
     atom   24 type  1   force =     0.00000000    0.00000000    0.00000000
     atom   25 type  1   force =     0.00000000    0.00000000    0.00000000
     atom   26 type  1   force =     0.00000000    0.00000000    0.00000000
     atom   27 type  1   force =     0.00000000    0.00000000    0.00000000
     atom   28 type  1   force =     0.00000000    0.00000000    0.00000000
     atom   29 type  1   force =     0.00000000    0.00000000    0.00000000
     atom   30 type  1   force =     0.00000000    0.00000000    0.00000000
     atom   31 type  1   force =     0.00000000    0.00000000    0.00000000
     atom   32 type  1   force =     0.00000000    0.00000000    0.00000000
     atom   33 type  1   force =     0.00000000    0.00000000    0.00000000
     atom   34 type  1   force =     0.00000000    0.00000000    0.00000000
     atom   35 type  1   force =     0.00000000    0.00000000    0.00000000
     atom   36 type  1   force =     0.00000000    0.00000000    0.00000000
     atom   37 type  1   force =     0.00000000    0.00000000    0.00000000
     atom   38 type  1   force =     0.00000000    0.00000000    0.00000000
     atom   39 type  1   force =     0.00000000    0.00000000    0.00000000
     atom   40 type  1   force =     0.00000000    0.00000000    0.00000000
     atom   41 type  1   force =     0.00000000    0.00000000    0.00000000
     atom   42 type  1   force =     0.00000000    0.00000000    0.00000000
     atom   43 type  1   force =     0.00000000    0.00000000    0.00000000
     atom   44 type  1   force =     0.00000000    0.00000000    0.00000000
     atom   45 type  2   force =     0.00000000    0.00000000    0.00000000
     atom   46 type  2   force =     0.00000000    0.00000000    0.00000000
     atom   47 type  2   force =     0.00000000    0.00000000    0.00000000
     atom   48 type  2   force =     0.00000000    0.00000000    0.00000000
     atom   49 type  2   force =     0.00000000    0.00000000    0.00000000
     atom   50 type  2   force =     0.00000000    0.00000000    0.00000000
     atom   51 type  2   force =     0.00000000    0.00000000    0.00000000
     atom   52 type  2   force =     0.00000000    0.00000000    0.00000000
     atom   53 type  2   force =     0.00000000    0.00000000    0.00000000
     atom   54 type  2   force =     0.00000000    0.00000000    0.00000000
     atom   55 type  2   force =     0.00000000    0.00000000    0.00000000
     atom   56 type  2   force =     0.00000000    0.00000000    0.00000000
     atom   57 type  2   force =     0.00000000    0.00000000    0.00000000
     atom   58 type  2   force =     0.00000000    0.00000000    0.00000000
     atom   59 type  2   force =     0.00000000    0.00000000    0.00000000
     atom   60 type  2   force =     0.00000000    0.00000000    0.00000000
     atom   61 type  2   force =     0.00000000    0.00000000    0.00000000
     atom   62 type  2   force =     0.00000000    0.00000000    0.00000000
     atom   63 type  2   force =     0.00000000    0.00000000    0.00000000
     atom   64 type  2   force =     0.00000000    0.00000000    0.00000000
     atom   65 type  2   force =     0.00000000    0.00000000    0.00000000
     atom   66 type  2   force =     0.00000000    0.00000000    0.00000000
     The SCF correction term to forces
     atom    1 type  1   force =     0.00001190    0.00002303   -0.00000030
     atom    2 type  1   force =    -0.00001207    0.00000590    0.00001523
     atom    3 type  1   force =    -0.00000227   -0.00001562   -0.00000366
     atom    4 type  1   force =    -0.00000541   -0.00000199   -0.00000888
     atom    5 type  1   force =     0.00000413    0.00000932    0.00000041
     atom    6 type  1   force =    -0.00000367    0.00000603    0.00000326
     atom    7 type  1   force =     0.00000616   -0.00000218   -0.00000198
     atom    8 type  1   force =    -0.00000194   -0.00001027   -0.00000232
     atom    9 type  1   force =    -0.00001358    0.00000291    0.00000273
     atom   10 type  1   force =     0.00000049   -0.00001446   -0.00000017
     atom   11 type  1   force =     0.00000681   -0.00002085    0.00000340
     atom   12 type  1   force =     0.00001173    0.00000178    0.00000975
     atom   13 type  1   force =     0.00001585    0.00000140    0.00000792
     atom   14 type  1   force =     0.00001121   -0.00000041   -0.00000516
     atom   15 type  1   force =    -0.00000170    0.00001134    0.00000004
     atom   16 type  1   force =    -0.00000206    0.00000962    0.00000149
     atom   17 type  1   force =     0.00002722   -0.00000560    0.00000986
     atom   18 type  1   force =     0.00000951   -0.00001839   -0.00002066
     atom   19 type  1   force =    -0.00000039    0.00000115   -0.00000680
     atom   20 type  1   force =    -0.00000169   -0.00000559   -0.00000165
     atom   21 type  1   force =     0.00000001    0.00000614    0.00000115
     atom   22 type  1   force =    -0.00000528    0.00000469   -0.00000635
     atom   23 type  1   force =    -0.00000043    0.00000351   -0.00001048
     atom   24 type  1   force =     0.00000524   -0.00000414   -0.00000897
     atom   25 type  1   force =    -0.00000175   -0.00000562   -0.00000231
     atom   26 type  1   force =    -0.00000568   -0.00000754    0.00000312
     atom   27 type  1   force =     0.00000019    0.00000445   -0.00000812
     atom   28 type  1   force =    -0.00000791   -0.00000163    0.00000283
     atom   29 type  1   force =     0.00000227   -0.00000392    0.00001055
     atom   30 type  1   force =     0.00000354   -0.00000432   -0.00000637
     atom   31 type  1   force =    -0.00000980   -0.00000959    0.00000464
     atom   32 type  1   force =    -0.00001391   -0.00000546    0.00000178
     atom   33 type  1   force =    -0.00000802    0.00001742   -0.00000273
     atom   34 type  1   force =    -0.00001578   -0.00000181   -0.00001166
     atom   35 type  1   force =     0.00000549   -0.00000537    0.00000102
     atom   36 type  1   force =     0.00000793   -0.00000227   -0.00000086
     atom   37 type  1   force =     0.00000474   -0.00000093    0.00000185
     atom   38 type  1   force =    -0.00000217   -0.00000701    0.00000690
     atom   39 type  1   force =    -0.00000974    0.00000077    0.00000814
     atom   40 type  1   force =    -0.00001175    0.00000087   -0.00000795
     atom   41 type  1   force =    -0.00000368    0.00000523    0.00001301
     atom   42 type  1   force =    -0.00001300    0.00000261   -0.00000096
     atom   43 type  1   force =    -0.00000631    0.00000733    0.00001067
     atom   44 type  1   force =     0.00000524   -0.00000422    0.00001088
     atom   45 type  2   force =     0.00000577    0.00009831    0.00006310
     atom   46 type  2   force =    -0.00004192   -0.00006680   -0.00008465
     atom   47 type  2   force =    -0.00007064    0.00012157    0.00002707
     atom   48 type  2   force =     0.00004025   -0.00000943    0.00003716
     atom   49 type  2   force =    -0.00005933   -0.00004027    0.00000799
     atom   50 type  2   force =     0.00007587   -0.00006769    0.00004950
     atom   51 type  2   force =     0.00014256    0.00000262    0.00005586
     atom   52 type  2   force =    -0.00004532    0.00010097   -0.00000894
     atom   53 type  2   force =     0.00012376   -0.00009715   -0.00006733
     atom   54 type  2   force =    -0.00000433    0.00002503   -0.00011211
     atom   55 type  2   force =    -0.00006323    0.00007251   -0.00001675
     atom   56 type  2   force =     0.00002062   -0.00000055   -0.00008303
     atom   57 type  2   force =    -0.00007109   -0.00014117    0.00001276
     atom   58 type  2   force =     0.00000838   -0.00004865   -0.00003703
     atom   59 type  2   force =     0.00003902   -0.00003396   -0.00000576
     atom   60 type  2   force =    -0.00014778   -0.00008325    0.00005504
     atom   61 type  2   force =    -0.00013797    0.00003847   -0.00009965
     atom   62 type  2   force =     0.00008703   -0.00004355   -0.00002108
     atom   63 type  2   force =     0.00003016    0.00003822    0.00007313
     atom   64 type  2   force =    -0.00012001    0.00002330    0.00002197
     atom   65 type  2   force =    -0.00007842    0.00000892    0.00004592
     atom   66 type  2   force =    -0.00001867    0.00003229    0.00012615

     Total force =     0.562921     Total SCF correction =     0.000570


     Computing stress (Cartesian axis) and pressure


     negative rho (up, down):  5.024E-01 0.000E+00
          total   stress  (Ry/bohr**3)                   (kbar)     P=       -2.91
  -0.00001907   0.00000044   0.00000047           -2.80        0.06        0.07
   0.00000044  -0.00001962   0.00000007            0.06       -2.89        0.01
   0.00000047   0.00000007  -0.00002061            0.07        0.01       -3.03


     init_run     :      8.05s CPU      8.51s WALL (       1 calls)
     electrons    :     85.55s CPU     91.20s WALL (       1 calls)
     forces       :      5.55s CPU      5.88s WALL (       1 calls)
     stress       :     16.66s CPU     17.04s WALL (       1 calls)

     Called by init_run:
     wfcinit      :      3.09s CPU      3.27s WALL (       1 calls)
     potinit      :      1.30s CPU      1.37s WALL (       1 calls)
     hinit0       :      0.95s CPU      1.02s WALL (       1 calls)

     Called by electrons:
     c_bands      :     57.51s CPU     60.44s WALL (      10 calls)
     sum_band     :     16.07s CPU     17.31s WALL (      10 calls)
     v_of_rho     :      6.94s CPU      7.51s WALL (      11 calls)
     newd         :      3.52s CPU      4.45s WALL (      11 calls)
     PAW_pot      :      1.03s CPU      1.03s WALL (      11 calls)
     mix_rho      :      1.29s CPU      1.38s WALL (      10 calls)

     Called by c_bands:
     init_us_2    :      0.82s CPU      0.85s WALL (      21 calls)
     init_us_2:cp :      0.82s CPU      0.85s WALL (      21 calls)
     regterg      :     56.53s CPU     59.45s WALL (      10 calls)

     Called by *egterg:
     rdiaghg      :      0.21s CPU      0.21s WALL (      32 calls)
     h_psi        :     50.90s CPU     53.36s WALL (      33 calls)
     s_psi        :      1.41s CPU      1.42s WALL (      33 calls)
     g_psi        :      0.16s CPU      0.16s WALL (      22 calls)

     Called by h_psi:
     h_psi:calbec :      1.26s CPU      1.27s WALL (      33 calls)
     vloc_psi     :     47.77s CPU     50.20s WALL (      33 calls)
     add_vuspsi   :      1.39s CPU      1.40s WALL (      33 calls)

     General routines
     calbec       :      1.86s CPU      1.87s WALL (      48 calls)
     fft          :      4.12s CPU      4.72s WALL (     119 calls)
     ffts         :      0.29s CPU      0.33s WALL (      10 calls)
     fftw         :     40.86s CPU     43.56s WALL (    2948 calls)

     Parallel routines

     PWSCF        :   1m55.97s CPU   2m 2.83s WALL


   This run was terminated on:  12: 8: 2  27Mar2024            

=------------------------------------------------------------------------------=
   JOB DONE.
=------------------------------------------------------------------------------=
