
     Program PWSCF v.7.2 starts on 28Mar2024 at  0: 5:26 

     This program is part of the open-source Quantum ESPRESSO suite
     for quantum simulation of materials; please cite
         "P. Giannozzi et al., J. Phys.:Condens. Matter 21 395502 (2009);
         "P. Giannozzi et al., J. Phys.:Condens. Matter 29 465901 (2017);
         "P. Giannozzi et al., J. Chem. Phys. 152 154105 (2020);
          URL http://www.quantum-espresso.org", 
     in publications or presentations arising from this work. More details at
     http://www.quantum-espresso.org/quote

     Parallel version (MPI), running on    32 processors

     MPI processes distributed on     1 nodes
     175076 MiB available memory on the printing compute node when the environment starts

     Reading input from pw-wt-448.in
Warning: card &CELL ignored
Warning: card / ignored

     Current dimensions of program PWSCF are:
     Max number of different atomic species (ntypx) = 10
     Max number of k-points (npk) =  40000
     Max angular momentum in pseudopotentials (lmaxx) =  4
     file O.pbe-n-kjpaw_psl.0.1.UPF: wavefunction(s)  2P renormalized

     IMPORTANT: XC functional enforced from input :
     Exchange-correlation= PBE
                           (   1   4   3   4   0   0   0)
     Any further DFT definition will be discarded
     Please, verify this is what you really want


     gamma-point specific algorithms are used

     R & G space division:  proc/nbgrp/npool/nimage =      32
     Subspace diagonalization in iterative solution of the eigenvalue problem:
     a serial algorithm will be used


     Parallelization info
     --------------------
     sticks:   dense  smooth     PW     G-vecs:    dense   smooth      PW
     Min        1707    1707    426               301015   301015   37634
     Max        1710    1710    428               301034   301034   37648
     Sum       54693   54693  13673              9632757  9632757 1204469

     Using Slab Decomposition



     bravais-lattice index     =            0
     lattice parameter (alat)  =      75.7119  a.u.
     unit-cell volume          =  434002.3113 (a.u.)^3
     number of atoms/cell      =           66
     number of atomic types    =            2
     number of electrons       =       176.00
     number of Kohn-Sham states=           88
     kinetic-energy cutoff     =      30.0000  Ry
     charge density cutoff     =     120.0000  Ry
     scf convergence threshold =      1.0E-06
     mixing beta               =       0.5000
     number of iterations used =            8  plain     mixing
     Exchange-correlation= PBE
                           (   1   4   3   4   0   0   0)

     celldm(1)=  75.711877  celldm(2)=   0.000000  celldm(3)=   0.000000
     celldm(4)=   0.000000  celldm(5)=   0.000000  celldm(6)=   0.000000

     crystal axes: (cart. coord. in units of alat)
               a(1) = (   1.000000   0.000000   0.000000 )  
               a(2) = (   0.000000   1.000000   0.000000 )  
               a(3) = (   0.000000   0.000000   1.000000 )  

     reciprocal axes: (cart. coord. in units 2 pi/alat)
               b(1) = (  1.000000  0.000000  0.000000 )  
               b(2) = (  0.000000  1.000000  0.000000 )  
               b(3) = (  0.000000  0.000000  1.000000 )  


     PseudoPot. # 1 for H  read from file:
     /share/pfaendtnergroup/rverma7/QE_PP/H.pbe-rrkjus_psl.1.0.0.UPF
     MD5 check sum: f52b6d4d1c606e5624b1dc7b2218f220
     Pseudo is Ultrasoft, Zval =  1.0
     Generated using "atomic" code by A. Dal Corso  v.5.1
     Using radial grid of  929 points,  2 beta functions with: 
                l(1) =   0
                l(2) =   0
     Q(r) pseudized with 0 coefficients 


     PseudoPot. # 2 for O  read from file:
     /share/pfaendtnergroup/rverma7/QE_PP/O.pbe-n-kjpaw_psl.0.1.UPF
     MD5 check sum: 0234752ac141de4415c5fc33072bef88
     Pseudo is Projector augmented-wave + core cor, Zval =  6.0
     Generated using "atomic" code by A. Dal Corso  v.5.0.99 svn rev. 10869
     Shape of augmentation charge: BESSEL
     Using radial grid of 1095 points,  4 beta functions with: 
                l(1) =   0
                l(2) =   0
                l(3) =   1
                l(4) =   1
     Q(r) pseudized with 0 coefficients 


     atomic species   valence    mass     pseudopotential
        H              1.00     1.00800     H ( 1.00)
        O              6.00    15.99900     O ( 1.00)

     No symmetry found



   Cartesian axes

     site n.     atom                  positions (alat units)
         1           H   tau(   1) = (   0.2998128   0.3329589   0.3513291  )
         2           H   tau(   2) = (   0.3379259   0.3371022   0.3669787  )
         3           H   tau(   3) = (   0.3049295   0.2612754   0.4030700  )
         4           H   tau(   4) = (   0.2734806   0.2763260   0.3821790  )
         5           H   tau(   5) = (   0.3725945   0.1687009   0.4233121  )
         6           H   tau(   6) = (   0.3335330   0.1620616   0.4114813  )
         7           H   tau(   7) = (   0.2457007   0.2871584   0.2801697  )
         8           H   tau(   8) = (   0.2363409   0.2668164   0.3135155  )
         9           H   tau(   9) = (   0.1953575   0.1722201   0.3480844  )
        10           H   tau(  10) = (   0.2217147   0.1776363   0.3795083  )
        11           H   tau(  11) = (   0.2781979   0.1797329   0.4891801  )
        12           H   tau(  12) = (   0.2794209   0.2123799   0.5108199  )
        13           H   tau(  13) = (   0.4359666   0.1723699   0.4039186  )
        14           H   tau(  14) = (   0.4110820   0.2029452   0.3947086  )
        15           H   tau(  15) = (   0.1966554   0.3057781   0.4002246  )
        16           H   tau(  16) = (   0.1874704   0.3480095   0.4085112  )
        17           H   tau(  17) = (   0.3715962   0.2894047   0.3127917  )
        18           H   tau(  18) = (   0.3730937   0.3157868   0.3413453  )
        19           H   tau(  19) = (   0.2280544   0.2039436   0.4310495  )
        20           H   tau(  20) = (   0.2366405   0.1622364   0.4393361  )
        21           H   tau(  21) = (   0.3237239   0.1581430   0.4642955  )
        22           H   tau(  22) = (   0.2966180   0.1301884   0.4656184  )
        23           H   tau(  23) = (   0.2563085   0.2430301   0.4298016  )
        24           H   tau(  24) = (   0.2487208   0.2270560   0.4650942  )
        25           H   tau(  25) = (   0.3241233   0.2994384   0.3245726  )
        26           H   tau(  26) = (   0.2944216   0.2782728   0.3043554  )
        27           H   tau(  27) = (   0.3824286   0.3527019   0.4035692  )
        28           H   tau(  28) = (   0.3621365   0.3191065   0.4115562  )
        29           H   tau(  29) = (   0.1635842   0.2578809   0.4285536  )
        30           H   tau(  30) = (   0.2069387   0.2572570   0.4321727  )
        31           H   tau(  31) = (   0.2784974   0.1545489   0.3767128  )
        32           H   tau(  32) = (   0.3106702   0.1753151   0.3632347  )
        33           H   tau(  33) = (   0.3515537   0.2634469   0.3977287  )
        34           H   tau(  34) = (   0.3598652   0.2553351   0.4323474  )
        35           H   tau(  35) = (   0.2083864   0.2565831   0.3709472  )
        36           H   tau(  36) = (   0.2156246   0.2264820   0.3472108  )
        37           H   tau(  37) = (   0.3051541   0.2237115   0.3659553  )
        38           H   tau(  38) = (   0.3242731   0.2495445   0.3403469  )
        39           H   tau(  39) = (   0.4018470   0.2166729   0.4452265  )
        40           H   tau(  40) = (   0.3670535   0.2086609   0.4569824  )
        41           H   tau(  41) = (   0.2395358   0.3253962   0.3806065  )
        42           H   tau(  42) = (   0.2510421   0.3170099   0.3434169  )
        43           H   tau(  43) = (   0.3992512   0.2593036   0.3567702  )
        44           H   tau(  44) = (   0.3755647   0.2279296   0.3555972  )
        45           O   tau(  45) = (   0.3243230   0.3335829   0.3442905  )
        46           O   tau(  46) = (   0.2813678   0.2559840   0.3946337  )
        47           O   tau(  47) = (   0.3489080   0.1704231   0.4307500  )
        48           O   tau(  48) = (   0.2530638   0.2829402   0.3031324  )
        49           O   tau(  49) = (   0.2186447   0.1805316   0.3530014  )
        50           O   tau(  50) = (   0.2641458   0.2011232   0.4936229  )
        51           O   tau(  51) = (   0.4145763   0.1825534   0.4110820  )
        52           O   tau(  52) = (   0.2048172   0.3306128   0.4000749  )
        53           O   tau(  53) = (   0.3870710   0.2977412   0.3313116  )
        54           O   tau(  54) = (   0.2305504   0.1780607   0.4217147  )
        55           O   tau(  55) = (   0.3055285   0.1498066   0.4792462  )
        56           O   tau(  56) = (   0.2375390   0.2406589   0.4458255  )
        57           O   tau(  57) = (   0.3206789   0.2770248   0.3111693  )
        58           O   tau(  58) = (   0.3634095   0.3375764   0.3954823  )
        59           O   tau(  59) = (   0.1858979   0.2672657   0.4191189  )
        60           O   tau(  60) = (   0.3034319   0.1556720   0.3784350  )
        61           O   tau(  61) = (   0.3458630   0.2727318   0.4199676  )
        62           O   tau(  62) = (   0.2123549   0.2519656   0.3471359  )
        63           O   tau(  63) = (   0.3275178   0.2275053   0.3546487  )
        64           O   tau(  64) = (   0.3802072   0.2285037   0.4518657  )
        65           O   tau(  65) = (   0.2600524   0.3227755   0.3663796  )
        66           O   tau(  66) = (   0.3956071   0.2374392   0.3693248  )

     number of k points=     1
                       cart. coord. in units 2pi/alat
        k(    1) = (   0.0000000   0.0000000   0.0000000), wk =   2.0000000

     Dense  grid:  4816379 G-vectors     FFT dimensions: ( 270, 270, 270)

     Estimated max dynamical RAM per process >     612.29 MB

     Estimated total dynamical RAM >      19.13 GB

     Check: negative core charge=   -0.000006

     Initial potential from superposition of free atoms

     starting charge     175.9995, renormalised to     176.0000

     negative rho (up, down):  3.706E-01 0.000E+00
     Starting wfcs are  132 randomized atomic wfcs
     Checking if some PAW data can be deallocated... 

     total cpu time spent up to now is        9.8 secs

     Self-consistent Calculation

     iteration #  1     ecut=    30.00 Ry     beta= 0.50
     Davidson diagonalization with overlap
     ethr =  1.00E-02,  avg # of iterations =  2.0

     negative rho (up, down):  4.361E-01 0.000E+00

     total cpu time spent up to now is       18.2 secs

     total energy              =    -965.85212218 Ry
     estimated scf accuracy    <       6.74377205 Ry

     iteration #  2     ecut=    30.00 Ry     beta= 0.50
     Davidson diagonalization with overlap
     ethr =  3.83E-03,  avg # of iterations =  2.0

     negative rho (up, down):  4.550E-01 0.000E+00

     total cpu time spent up to now is       26.6 secs

     total energy              =    -967.74904582 Ry
     estimated scf accuracy    <       0.99002902 Ry

     iteration #  3     ecut=    30.00 Ry     beta= 0.50
     Davidson diagonalization with overlap
     ethr =  5.63E-04,  avg # of iterations =  2.0

     negative rho (up, down):  4.976E-01 0.000E+00

     total cpu time spent up to now is       34.1 secs

     total energy              =    -967.80126961 Ry
     estimated scf accuracy    <       0.12819810 Ry

     iteration #  4     ecut=    30.00 Ry     beta= 0.50
     Davidson diagonalization with overlap
     ethr =  7.28E-05,  avg # of iterations =  3.0

     negative rho (up, down):  4.976E-01 0.000E+00

     total cpu time spent up to now is       42.7 secs

     total energy              =    -967.82470431 Ry
     estimated scf accuracy    <       0.04111459 Ry

     iteration #  5     ecut=    30.00 Ry     beta= 0.50
     Davidson diagonalization with overlap
     ethr =  2.34E-05,  avg # of iterations =  2.0

     negative rho (up, down):  4.966E-01 0.000E+00

     total cpu time spent up to now is       49.6 secs

     total energy              =    -967.82528440 Ry
     estimated scf accuracy    <       0.00769047 Ry

     iteration #  6     ecut=    30.00 Ry     beta= 0.50
     Davidson diagonalization with overlap
     ethr =  4.37E-06,  avg # of iterations =  2.0

     negative rho (up, down):  4.958E-01 0.000E+00

     total cpu time spent up to now is       56.8 secs

     total energy              =    -967.82559543 Ry
     estimated scf accuracy    <       0.00140518 Ry

     iteration #  7     ecut=    30.00 Ry     beta= 0.50
     Davidson diagonalization with overlap
     ethr =  7.98E-07,  avg # of iterations =  2.0

     negative rho (up, down):  4.956E-01 0.000E+00

     total cpu time spent up to now is       64.8 secs

     total energy              =    -967.82582131 Ry
     estimated scf accuracy    <       0.00008577 Ry

     iteration #  8     ecut=    30.00 Ry     beta= 0.50
     Davidson diagonalization with overlap
     ethr =  4.87E-08,  avg # of iterations =  3.0

     negative rho (up, down):  4.956E-01 0.000E+00

     total cpu time spent up to now is       73.4 secs

     total energy              =    -967.82585063 Ry
     estimated scf accuracy    <       0.00000797 Ry

     iteration #  9     ecut=    30.00 Ry     beta= 0.50
     Davidson diagonalization with overlap
     ethr =  4.53E-09,  avg # of iterations =  2.0

     negative rho (up, down):  4.957E-01 0.000E+00

     total cpu time spent up to now is       81.1 secs

     total energy              =    -967.82584982 Ry
     estimated scf accuracy    <       0.00000541 Ry

     iteration # 10     ecut=    30.00 Ry     beta= 0.50
     Davidson diagonalization with overlap
     ethr =  3.08E-09,  avg # of iterations =  2.0

     negative rho (up, down):  4.957E-01 0.000E+00

     total cpu time spent up to now is       88.8 secs

     End of self-consistent calculation

          k = 0.0000 0.0000 0.0000 (602235 PWs)   bands (ev):

   -25.9700 -25.6764 -25.6647 -25.6257 -25.5467 -25.2465 -25.1898 -25.1116
   -24.9922 -24.9860 -24.8167 -24.7983 -24.6882 -24.6081 -24.5911 -24.5864
   -24.4245 -24.3580 -24.2247 -24.0512 -23.7767 -23.2633 -13.6785 -13.4709
   -13.4137 -13.3639 -13.2833 -13.2099 -13.1454 -13.0618 -12.9517 -12.8249
   -12.8136 -12.7452 -12.6303 -12.5360 -12.4907 -12.3758 -12.2915 -12.0713
   -11.9094 -11.8251 -11.7031 -11.5609 -11.0845 -10.6185 -10.5476 -10.3278
   -10.2259 -10.1440 -10.0413  -9.8440  -9.7653  -9.5334  -9.4780  -9.3813
    -9.2619  -9.0171  -8.9271  -8.8985  -8.8230  -8.6778  -8.5912  -8.4897
    -8.2538  -7.9174  -7.8476  -7.8128  -7.7085  -7.6916  -7.5738  -7.5417
    -7.5156  -7.4368  -7.3890  -7.2964  -7.2240  -7.1814  -7.0918  -7.0447
    -6.9717  -6.9542  -6.8922  -6.7919  -6.6465  -6.4417  -6.2310  -6.1277

     highest occupied level (ev):    -6.1277

!    total energy              =    -967.82585036 Ry
     estimated scf accuracy    <       0.00000027 Ry

     The total energy is the sum of the following terms:
     one-electron contribution =   -5914.46707355 Ry
     hartree contribution      =    2992.46588220 Ry
     xc contribution           =    -193.53016955 Ry
     ewald contribution        =    2357.02990177 Ry
     one-center paw contrib.   =    -209.32439123 Ry

     convergence has been achieved in  10 iterations

     negative rho (up, down):  4.957E-01 0.000E+00

     Forces acting on atoms (cartesian axes, Ry/au):

     atom    1 type  1   force =     0.04013490    0.00765521    0.00371765
     atom    2 type  1   force =    -0.04576875   -0.00619591   -0.06486548
     atom    3 type  1   force =    -0.03733455    0.00342079   -0.00224298
     atom    4 type  1   force =     0.01190019   -0.00940267    0.01498893
     atom    5 type  1   force =    -0.00929609   -0.00550730   -0.00748174
     atom    6 type  1   force =     0.03621017    0.02657197    0.04053121
     atom    7 type  1   force =    -0.00177033   -0.00158957    0.00414645
     atom    8 type  1   force =     0.01728458    0.02348269    0.00679731
     atom    9 type  1   force =     0.04754510    0.01366849    0.01564229
     atom   10 type  1   force =    -0.01533457    0.00563101   -0.07579494
     atom   11 type  1   force =    -0.01762460    0.02674596   -0.01067360
     atom   12 type  1   force =    -0.04982050   -0.02190455   -0.04613875
     atom   13 type  1   force =    -0.02115307    0.00853569    0.00663436
     atom   14 type  1   force =     0.00664386   -0.04728015    0.03199751
     atom   15 type  1   force =    -0.01628294    0.07639626    0.03351171
     atom   16 type  1   force =     0.05676222   -0.08668224   -0.03181858
     atom   17 type  1   force =     0.03460245    0.01546729    0.04026652
     atom   18 type  1   force =     0.01975216   -0.02242279   -0.00801164
     atom   19 type  1   force =     0.02182492   -0.09782826   -0.01589231
     atom   20 type  1   force =    -0.00482367    0.01869502    0.00247463
     atom   21 type  1   force =     0.01000153    0.00421601   -0.00799167
     atom   22 type  1   force =     0.02133755    0.04881543    0.04029949
     atom   23 type  1   force =     0.01677525    0.02592007   -0.03032879
     atom   24 type  1   force =    -0.02008525    0.02049672   -0.00877433
     atom   25 type  1   force =    -0.01520923   -0.03228856   -0.02189248
     atom   26 type  1   force =     0.09634516   -0.00883743    0.03061576
     atom   27 type  1   force =    -0.05895316   -0.04269684   -0.02684160
     atom   28 type  1   force =    -0.00780044   -0.02789586    0.00874893
     atom   29 type  1   force =     0.09299503    0.03112780   -0.03150244
     atom   30 type  1   force =    -0.06701421    0.01717694   -0.01229846
     atom   31 type  1   force =     0.03662839    0.01076452    0.00157465
     atom   32 type  1   force =    -0.02466319   -0.05538115    0.03731241
     atom   33 type  1   force =     0.00046105    0.01159912   -0.01225393
     atom   34 type  1   force =    -0.00926075    0.01426056    0.01540288
     atom   35 type  1   force =    -0.00685710    0.00534760   -0.00131552
     atom   36 type  1   force =    -0.00633975    0.03466409    0.00224106
     atom   37 type  1   force =     0.04263380    0.03192365   -0.01722930
     atom   38 type  1   force =    -0.00732406   -0.04498995    0.00210252
     atom   39 type  1   force =    -0.04023190    0.03620694    0.00287965
     atom   40 type  1   force =    -0.02851324   -0.00576556   -0.00377886
     atom   41 type  1   force =     0.00303538    0.02381481   -0.00238756
     atom   42 type  1   force =     0.01408955    0.00467542    0.04012070
     atom   43 type  1   force =    -0.00233647   -0.02393561    0.01985405
     atom   44 type  1   force =     0.04696984    0.02352268    0.05466431
     atom   45 type  2   force =    -0.00550238    0.01827469    0.06270473
     atom   46 type  2   force =     0.01110762    0.01419056    0.01611698
     atom   47 type  2   force =    -0.03883567   -0.03112548   -0.03564553
     atom   48 type  2   force =    -0.01906912   -0.00847861   -0.00662122
     atom   49 type  2   force =    -0.02938477   -0.01355503    0.07206893
     atom   50 type  2   force =     0.06708090    0.00415443    0.05267646
     atom   51 type  2   force =     0.00957436    0.05478517   -0.04838838
     atom   52 type  2   force =    -0.05822596    0.00442274    0.01669306
     atom   53 type  2   force =    -0.03875232   -0.00590776   -0.03592575
     atom   54 type  2   force =    -0.02018380    0.07642891   -0.00286354
     atom   55 type  2   force =    -0.03064017   -0.05727068   -0.03158980
     atom   56 type  2   force =     0.02722584   -0.05107387    0.03870183
     atom   57 type  2   force =    -0.07778140    0.03534972   -0.00323804
     atom   58 type  2   force =     0.07221063    0.06072999    0.03467076
     atom   59 type  2   force =    -0.03213390   -0.04056596    0.03244965
     atom   60 type  2   force =    -0.00018774    0.04871879   -0.04006441
     atom   61 type  2   force =     0.00627494   -0.01060933   -0.02314097
     atom   62 type  2   force =     0.00607763   -0.06025897   -0.00766833
     atom   63 type  2   force =    -0.02803774    0.00247309   -0.00559512
     atom   64 type  2   force =     0.07563648   -0.03200645    0.01539527
     atom   65 type  2   force =    -0.00801067   -0.03209147   -0.05285073
     atom   66 type  2   force =    -0.04857801   -0.00678284   -0.06489587
     The non-local contrib.  to forces
     atom    1 type  1   force =     0.08940755    0.00177021   -0.02406483
     atom    2 type  1   force =    -0.03769521   -0.01107627   -0.06074529
     atom    3 type  1   force =    -0.08433773   -0.01659594   -0.03165464
     atom    4 type  1   force =     0.03304181   -0.07929699    0.04968522
     atom    5 type  1   force =    -0.09827995    0.00561324    0.02883008
     atom    6 type  1   force =     0.05283300    0.02667326    0.06188860
     atom    7 type  1   force =     0.03066852   -0.02063318    0.10257434
     atom    8 type  1   force =     0.06042215    0.05862013   -0.04160188
     atom    9 type  1   force =     0.08939485    0.03171463    0.02182764
     atom   10 type  1   force =    -0.01121328    0.00724652   -0.07351962
     atom   11 type  1   force =    -0.04408991    0.06975988    0.01447812
     atom   12 type  1   force =    -0.05366339   -0.04124957   -0.06216256
     atom   13 type  1   force =    -0.09026428    0.04461479    0.02861041
     atom   14 type  1   force =     0.01319609   -0.06397140    0.04958756
     atom   15 type  1   force =     0.02274419    0.08055780    0.00033093
     atom   16 type  1   force =     0.05515300   -0.06086068   -0.02776963
     atom   17 type  1   force =     0.05570830    0.03210892    0.06904039
     atom   18 type  1   force =     0.05575724   -0.07515592   -0.04248934
     atom   19 type  1   force =     0.00763539   -0.05823100   -0.01749570
     atom   20 type  1   force =    -0.02693724    0.07239787   -0.07616251
     atom   21 type  1   force =    -0.07422233   -0.03448833    0.05834636
     atom   22 type  1   force =     0.03316648    0.07280042    0.04812880
     atom   23 type  1   force =    -0.07783182   -0.01120875    0.06775580
     atom   24 type  1   force =    -0.03416837    0.04225660   -0.06087245
     atom   25 type  1   force =    -0.01188627   -0.06442523   -0.03837673
     atom   26 type  1   force =     0.06703617   -0.00170810    0.01837110
     atom   27 type  1   force =    -0.06818878   -0.05585262   -0.02728748
     atom   28 type  1   force =     0.00841150    0.08418132   -0.07004136
     atom   29 type  1   force =     0.07562802    0.02973683   -0.02966316
     atom   30 type  1   force =    -0.05670155    0.02406722   -0.03317764
     atom   31 type  1   force =     0.10099448    0.00697160    0.00557758
     atom   32 type  1   force =    -0.02850690   -0.06700612    0.05224219
     atom   33 type  1   force =    -0.02450812    0.03964192    0.09430421
     atom   34 type  1   force =    -0.04855917    0.05931184   -0.04324706
     atom   35 type  1   force =     0.01891341   -0.02161466   -0.10362494
     atom   36 type  1   force =    -0.01160548    0.08954453    0.00186323
     atom   37 type  1   force =     0.08375398    0.01432509   -0.04358609
     atom   38 type  1   force =     0.00669882   -0.06144303    0.04073951
     atom   39 type  1   force =    -0.07991070    0.04230050    0.02432248
     atom   40 type  1   force =     0.06194304    0.09034266   -0.02336788
     atom   41 type  1   force =     0.07682127   -0.01116040   -0.05635674
     atom   42 type  1   force =     0.03198458    0.02223384    0.08841062
     atom   43 type  1   force =    -0.01377555   -0.08126695    0.04523579
     atom   44 type  1   force =     0.06707535    0.03246049    0.04369952
     atom   45 type  2   force =    -0.76558079   -0.13845639    1.65183609
     atom   46 type  2   force =     0.85316871    1.66006132   -0.16757041
     atom   47 type  2   force =     0.59947090   -0.76134489   -1.50962610
     atom   48 type  2   force =    -1.47577766   -0.73664769   -1.14721150
     atom   49 type  2   force =    -1.61774198   -0.64542109    1.26210787
     atom   50 type  2   force =     1.85859614   -0.27892708    0.73704956
     atom   51 type  2   force =     1.33434911    0.47582473   -1.46744120
     atom   52 type  2   force =    -1.74095539   -0.35752622    0.49647521
     atom   53 type  2   force =    -2.05830531    0.57816270   -0.47774438
     atom   54 type  2   force =     0.27601342    0.13228147    1.71291731
     atom   55 type  2   force =     0.31315494   -0.67153093   -1.95951316
     atom   56 type  2   force =     1.47612494   -0.75992107   -0.09189392
     atom   57 type  2   force =    -1.23715445    1.16661575    0.53156995
     atom   58 type  2   force =     1.17684149   -0.15526496    1.54591317
     atom   59 type  2   force =    -0.39839477   -1.15240421    1.26313198
     atom   60 type  2   force =    -1.29802347    1.34620843   -1.02106280
     atom   61 type  2   force =     1.08339824   -1.52940954   -0.86835475
     atom   62 type  2   force =     0.08779571   -1.22163129    1.59554815
     atom   63 type  2   force =    -1.59513821    0.80898295    0.01044099
     atom   64 type  2   force =     0.42554677   -2.06059573   -0.15880475
     atom   65 type  2   force =    -1.77717201   -0.31668971   -0.71672011
     atom   66 type  2   force =    -0.86686840    0.63915684   -1.61829035
     The ionic contribution  to forces
     atom    1 type  1   force =    -2.45819969    2.57446773   -0.04312248
     atom    2 type  1   force =     1.28199111    2.82459922    1.47836483
     atom    3 type  1   force =     2.15882596    1.05759692    1.88629905
     atom    4 type  1   force =    -1.43925049    2.93545556   -1.16112274
     atom    5 type  1   force =     3.81701509   -2.38103962   -0.35351744
     atom    6 type  1   force =    -0.72302437   -2.85465144   -1.68096168
     atom    7 type  1   force =    -1.95060475    1.17560917   -5.59688151
     atom    8 type  1   force =    -2.96904145   -1.67936324   -1.36084341
     atom    9 type  1   force =    -4.62736514   -2.53291163   -1.76048991
     atom   10 type  1   force =    -1.31219503   -2.02398344    1.39685978
     atom   11 type  1   force =     0.64589313   -2.75927608    1.72872719
     atom   12 type  1   force =     1.67320783    1.55710280    4.51514195
     atom   13 type  1   force =     4.93832907   -2.62813397   -0.95662072
     atom   14 type  1   force =     2.12518264    0.86541284   -1.80701362
     atom   15 type  1   force =    -2.68282027   -0.73771181    0.14979405
     atom   16 type  1   force =    -3.41652897    3.80530375    1.46744350
     atom   17 type  1   force =     0.28218516   -0.40747088   -4.43158688
     atom   18 type  1   force =     0.55092549    3.72649993    0.03626510
     atom   19 type  1   force =    -2.10846609    0.42391239    1.34601632
     atom   20 type  1   force =    -0.56437576   -4.21618453    3.14805604
     atom   21 type  1   force =     2.47941545   -0.70893089    0.18833263
     atom   22 type  1   force =    -1.30452116   -4.66413293   -0.50020277
     atom   23 type  1   force =     1.59814855    0.58394297   -0.32668349
     atom   24 type  1   force =     0.08849333   -0.70561578    3.73770333
     atom   25 type  1   force =     0.75967630    2.66756305   -1.02624773
     atom   26 type  1   force =    -1.81592140    0.17550919   -3.25215442
     atom   27 type  1   force =     3.69437467    3.83739443    1.68214744
     atom   28 type  1   force =     1.15761319   -0.32793691    3.44791526
     atom   29 type  1   force =    -4.99749944   -0.94253490    1.85642481
     atom   30 type  1   force =    -0.65171467   -0.04514068    2.26969694
     atom   31 type  1   force =    -3.38795137   -2.51226214   -1.03474050
     atom   32 type  1   force =     1.03892101    0.00005749   -3.09138345
     atom   33 type  1   force =     1.80186134   -0.36674503   -2.11757696
     atom   34 type  1   force =     2.23150230   -0.55001294    2.77582945
     atom   35 type  1   force =    -2.54515210    0.69118880    2.19026075
     atom   36 type  1   force =    -1.35997739   -3.11309433   -1.53568109
     atom   37 type  1   force =    -2.47388698   -1.79366593    0.12161922
     atom   38 type  1   force =     0.29015436    0.99002649   -2.62223314
     atom   39 type  1   force =     4.66167880   -1.10552817    1.10319297
     atom   40 type  1   force =    -0.62381567   -2.68921533    3.06166250
     atom   41 type  1   force =    -2.67716060    2.36688485    1.53929129
     atom   42 type  1   force =    -2.20742044    1.43447216   -3.72011316
     atom   43 type  1   force =     3.11068977    2.33734499   -2.03714793
     atom   44 type  1   force =    -0.00001200   -2.09613052   -2.85494599
     atom   45 type  2   force =     3.07289643   15.26387535   -8.48312923
     atom   46 type  2   force =    -4.00450197   -0.91577000    3.14411856
     atom   47 type  2   force =     4.06596763   -9.36534567    6.38871636
     atom   48 type  2   force =    -4.11755847    4.35096739  -12.95748973
     atom   49 type  2   force =    -5.92388647   -9.03002436   -9.71448112
     atom   50 type  2   force =    -6.27803206   -1.33238565   13.29845296
     atom   51 type  2   force =    11.83156643   -8.97732928    2.72557615
     atom   52 type  2   force =    -7.40784920   12.58569901    2.61369915
     atom   53 type  2   force =    16.36898689    4.90177030   -8.20695759
     atom   54 type  2   force =    -9.38124928  -11.06654726    1.05304941
     atom   55 type  2   force =     0.23687370  -10.14499558   13.08801630
     atom   56 type  2   force =    -8.64873072    3.81913877   11.31136728
     atom   57 type  2   force =     4.47790795   -1.09924841  -16.73176404
     atom   58 type  2   force =     6.48969540   13.85703153    3.32016339
     atom   59 type  2   force =   -14.47428571    3.86488621    3.04422372
     atom   60 type  2   force =     2.00808384  -15.64940681   -4.10374238
     atom   61 type  2   force =     2.92318448    9.45627533   10.76132496
     atom   62 type  2   force =   -12.29977967    1.29851880  -10.22634589
     atom   63 type  2   force =     5.82485532   -8.91783200   -8.53401288
     atom   64 type  2   force =     9.32084512    4.58484446   12.85963572
     atom   65 type  2   force =    -1.69818133   13.34328565   -0.16760758
     atom   66 type  2   force =    15.52401234   -3.01607936   -2.33858690
     The local contribution  to forces
     atom    1 type  1   force =     2.40895211   -2.56859426    0.07088614
     atom    2 type  1   force =    -1.29000578   -2.81972632   -1.48249022
     atom    3 type  1   force =    -2.11175278   -1.03758136   -1.85691584
     atom    4 type  1   force =     1.41815657   -2.86554801    1.12638392
     atom    5 type  1   force =    -3.72795654    2.36990328    0.31716602
     atom    6 type  1   force =     0.70643757    2.85452659    1.65955322
     atom    7 type  1   force =     1.91820716   -1.15657348    5.49840665
     atom    8 type  1   force =     2.92594376    1.64420811    1.40920889
     atom    9 type  1   force =     4.58554164    2.51485032    1.75427480
     atom   10 type  1   force =     1.30812193    2.02235543   -1.39914414
     atom   11 type  1   force =    -0.61938199    2.71626041   -1.75390727
     atom   12 type  1   force =    -1.66931475   -1.53776868   -4.49914909
     atom   13 type  1   force =    -4.86916367    2.59204445    0.93461468
     atom   14 type  1   force =    -2.13167526   -0.84874108    1.78939890
     atom   15 type  1   force =     2.64384380    0.73354913   -0.11665003
     atom   16 type  1   force =     3.41818354   -3.83112614   -1.47151913
     atom   17 type  1   force =    -0.30326350    0.39081742    4.40276722
     atom   18 type  1   force =    -0.58690173   -3.67375829   -0.00180706
     atom   19 type  1   force =     2.12270703   -0.46350876   -1.34443451
     atom   20 type  1   force =     0.58654309    4.16246487   -3.06943816
     atom   21 type  1   force =    -2.39514130    0.74761843   -0.25470533
     atom   22 type  1   force =     1.29274082    4.64013034    0.49233335
     atom   23 type  1   force =    -1.50349412   -0.54682972    0.22858188
     atom   24 type  1   force =    -0.07435523    0.68384381   -3.68563911
     atom   25 type  1   force =    -0.76295052   -2.63543558    1.04270957
     atom   26 type  1   force =     1.84527045   -0.18264377    3.26437063
     atom   27 type  1   force =    -3.68508067   -3.82424187   -1.68172327
     atom   28 type  1   force =    -1.17376958    0.21585075   -3.36914737
     atom   29 type  1   force =     5.01487925    0.94390056   -1.85827607
     atom   30 type  1   force =     0.64148021    0.03822312   -2.24882518
     atom   31 type  1   force =     3.32363577    2.51604613    1.03070918
     atom   32 type  1   force =    -1.03503307    0.01155627    3.07642564
     atom   33 type  1   force =    -1.77684031    0.33868677    2.01097352
     atom   34 type  1   force =    -2.19215029    0.50494715   -2.71721866
     atom   35 type  1   force =     2.51942941   -0.66423953   -2.08796036
     atom   36 type  1   force =     1.36529445    3.05818351    1.53603547
     atom   37 type  1   force =     2.43278829    1.81125329   -0.09528273
     atom   38 type  1   force =    -0.30413777   -0.97355748    2.58356277
     atom   39 type  1   force =    -4.62192986    1.09940405   -1.12466800
     atom   40 type  1   force =     0.53340755    2.59307518   -3.04209808
     atom   41 type  1   force =     2.60340820   -2.33191538   -1.48534944
     atom   42 type  1   force =     2.18956621   -1.45203804    3.67178356
     atom   43 type  1   force =    -3.09920491   -2.28000621    2.01172317
     atom   44 type  1   force =    -0.02005740    2.08718223    2.86586309
     atom   45 type  2   force =    -2.32102401  -15.10809332    6.91015882
     atom   46 type  2   force =     3.17087220   -0.71431352   -2.96195393
     atom   47 type  2   force =    -4.69867733   10.08761846   -4.92984438
     atom   48 type  2   force =     5.55945080   -3.63015925   14.08613306
     atom   49 type  2   force =     7.49497637    9.65493354    8.53730669
     atom   50 type  2   force =     4.50509842    1.61282498  -13.97511218
     atom   51 type  2   force =   -13.14173413    8.56086966   -1.32165203
     atom   52 type  2   force =     9.07133708  -12.22693798   -3.08821800
     atom   53 type  2   force =   -14.37000003   -5.48069205    8.64377339
     atom   54 type  2   force =     9.08739816   11.01214998   -2.75101768
     atom   55 type  2   force =    -0.57784358   10.75222561  -11.18021008
     atom   56 type  2   force =     7.21427842   -3.11773943  -11.18141735
     atom   57 type  2   force =    -3.33185801   -0.01987379   16.20128046
     atom   58 type  2   force =    -7.58125724  -13.64112423   -4.81531771
     atom   59 type  2   force =    14.83428737   -2.76481927   -4.26146082
     atom   60 type  2   force =    -0.72317724   14.36516909    5.07407416
     atom   61 type  2   force =    -3.99063442   -7.95120505   -9.92463372
     atom   62 type  2   force =    12.21918784   -0.14912036    8.63869733
     atom   63 type  2   force =    -4.27389114    8.11894398    8.51891143
     atom   64 type  2   force =    -9.66558772   -2.57648480  -12.68619232
     atom   65 type  2   force =     3.44962363  -13.06140712    0.82415963
     atom   66 type  2   force =   -14.71350648    2.37601096    3.87582398
     The core correction contribution to forces
     atom    1 type  1   force =     0.00000000    0.00000000    0.00000000
     atom    2 type  1   force =     0.00000000    0.00000000    0.00000000
     atom    3 type  1   force =     0.00000000    0.00000000    0.00000000
     atom    4 type  1   force =     0.00000000    0.00000000    0.00000000
     atom    5 type  1   force =     0.00000000    0.00000000    0.00000000
     atom    6 type  1   force =     0.00000000    0.00000000    0.00000000
     atom    7 type  1   force =     0.00000000    0.00000000    0.00000000
     atom    8 type  1   force =     0.00000000    0.00000000    0.00000000
     atom    9 type  1   force =     0.00000000    0.00000000    0.00000000
     atom   10 type  1   force =     0.00000000    0.00000000    0.00000000
     atom   11 type  1   force =     0.00000000    0.00000000    0.00000000
     atom   12 type  1   force =     0.00000000    0.00000000    0.00000000
     atom   13 type  1   force =     0.00000000    0.00000000    0.00000000
     atom   14 type  1   force =     0.00000000    0.00000000    0.00000000
     atom   15 type  1   force =     0.00000000    0.00000000    0.00000000
     atom   16 type  1   force =     0.00000000    0.00000000    0.00000000
     atom   17 type  1   force =     0.00000000    0.00000000    0.00000000
     atom   18 type  1   force =     0.00000000    0.00000000    0.00000000
     atom   19 type  1   force =     0.00000000    0.00000000    0.00000000
     atom   20 type  1   force =     0.00000000    0.00000000    0.00000000
     atom   21 type  1   force =     0.00000000    0.00000000    0.00000000
     atom   22 type  1   force =     0.00000000    0.00000000    0.00000000
     atom   23 type  1   force =     0.00000000    0.00000000    0.00000000
     atom   24 type  1   force =     0.00000000    0.00000000    0.00000000
     atom   25 type  1   force =     0.00000000    0.00000000    0.00000000
     atom   26 type  1   force =     0.00000000    0.00000000    0.00000000
     atom   27 type  1   force =     0.00000000    0.00000000    0.00000000
     atom   28 type  1   force =     0.00000000    0.00000000    0.00000000
     atom   29 type  1   force =     0.00000000    0.00000000    0.00000000
     atom   30 type  1   force =     0.00000000    0.00000000    0.00000000
     atom   31 type  1   force =     0.00000000    0.00000000    0.00000000
     atom   32 type  1   force =     0.00000000    0.00000000    0.00000000
     atom   33 type  1   force =     0.00000000    0.00000000    0.00000000
     atom   34 type  1   force =     0.00000000    0.00000000    0.00000000
     atom   35 type  1   force =     0.00000000    0.00000000    0.00000000
     atom   36 type  1   force =     0.00000000    0.00000000    0.00000000
     atom   37 type  1   force =     0.00000000    0.00000000    0.00000000
     atom   38 type  1   force =     0.00000000    0.00000000    0.00000000
     atom   39 type  1   force =     0.00000000    0.00000000    0.00000000
     atom   40 type  1   force =     0.00000000    0.00000000    0.00000000
     atom   41 type  1   force =     0.00000000    0.00000000    0.00000000
     atom   42 type  1   force =     0.00000000    0.00000000    0.00000000
     atom   43 type  1   force =     0.00000000    0.00000000    0.00000000
     atom   44 type  1   force =     0.00000000    0.00000000    0.00000000
     atom   45 type  2   force =     0.00818196    0.00092094   -0.01608377
     atom   46 type  2   force =    -0.00831146   -0.01568635    0.00146845
     atom   47 type  2   force =    -0.00548838    0.00787075    0.01496325
     atom   48 type  2   force =     0.01476746    0.00731904    0.01179246
     atom   49 type  2   force =     0.01722751    0.00692678   -0.01284907
     atom   50 type  2   force =    -0.01845577    0.00261502   -0.00771590
     atom   51 type  2   force =    -0.01444015   -0.00463580    0.01505083
     atom   52 type  2   force =     0.01926269    0.00322002   -0.00529575
     atom   53 type  2   force =     0.02042923   -0.00508913    0.00493192
     atom   54 type  2   force =    -0.00229242   -0.00148255   -0.01777263
     atom   55 type  2   force =    -0.00275930    0.00693293    0.01995855
     atom   56 type  2   force =    -0.01427390    0.00737529    0.00061601
     atom   57 type  2   force =     0.01328322   -0.01205606   -0.00428290
     atom   58 type  2   force =    -0.01296304    0.00008000   -0.01603940
     atom   59 type  2   force =     0.00622170    0.01169241   -0.01340503
     atom   60 type  2   force =     0.01291088   -0.01325466    0.01061955
     atom   61 type  2   force =    -0.00954620    0.01360709    0.00837904
     atom   62 type  2   force =    -0.00108827    0.01185848   -0.01549338
     atom   63 type  2   force =     0.01603672   -0.00752338   -0.00095793
     atom   64 type  2   force =    -0.00508021    0.02003406    0.00071579
     atom   65 type  2   force =     0.01764057    0.00270182    0.00720525
     atom   66 type  2   force =     0.00773840   -0.00580032    0.01597023
     The Hubbard contrib.    to forces
     atom    1 type  1   force =     0.00000000    0.00000000    0.00000000
     atom    2 type  1   force =     0.00000000    0.00000000    0.00000000
     atom    3 type  1   force =     0.00000000    0.00000000    0.00000000
     atom    4 type  1   force =     0.00000000    0.00000000    0.00000000
     atom    5 type  1   force =     0.00000000    0.00000000    0.00000000
     atom    6 type  1   force =     0.00000000    0.00000000    0.00000000
     atom    7 type  1   force =     0.00000000    0.00000000    0.00000000
     atom    8 type  1   force =     0.00000000    0.00000000    0.00000000
     atom    9 type  1   force =     0.00000000    0.00000000    0.00000000
     atom   10 type  1   force =     0.00000000    0.00000000    0.00000000
     atom   11 type  1   force =     0.00000000    0.00000000    0.00000000
     atom   12 type  1   force =     0.00000000    0.00000000    0.00000000
     atom   13 type  1   force =     0.00000000    0.00000000    0.00000000
     atom   14 type  1   force =     0.00000000    0.00000000    0.00000000
     atom   15 type  1   force =     0.00000000    0.00000000    0.00000000
     atom   16 type  1   force =     0.00000000    0.00000000    0.00000000
     atom   17 type  1   force =     0.00000000    0.00000000    0.00000000
     atom   18 type  1   force =     0.00000000    0.00000000    0.00000000
     atom   19 type  1   force =     0.00000000    0.00000000    0.00000000
     atom   20 type  1   force =     0.00000000    0.00000000    0.00000000
     atom   21 type  1   force =     0.00000000    0.00000000    0.00000000
     atom   22 type  1   force =     0.00000000    0.00000000    0.00000000
     atom   23 type  1   force =     0.00000000    0.00000000    0.00000000
     atom   24 type  1   force =     0.00000000    0.00000000    0.00000000
     atom   25 type  1   force =     0.00000000    0.00000000    0.00000000
     atom   26 type  1   force =     0.00000000    0.00000000    0.00000000
     atom   27 type  1   force =     0.00000000    0.00000000    0.00000000
     atom   28 type  1   force =     0.00000000    0.00000000    0.00000000
     atom   29 type  1   force =     0.00000000    0.00000000    0.00000000
     atom   30 type  1   force =     0.00000000    0.00000000    0.00000000
     atom   31 type  1   force =     0.00000000    0.00000000    0.00000000
     atom   32 type  1   force =     0.00000000    0.00000000    0.00000000
     atom   33 type  1   force =     0.00000000    0.00000000    0.00000000
     atom   34 type  1   force =     0.00000000    0.00000000    0.00000000
     atom   35 type  1   force =     0.00000000    0.00000000    0.00000000
     atom   36 type  1   force =     0.00000000    0.00000000    0.00000000
     atom   37 type  1   force =     0.00000000    0.00000000    0.00000000
     atom   38 type  1   force =     0.00000000    0.00000000    0.00000000
     atom   39 type  1   force =     0.00000000    0.00000000    0.00000000
     atom   40 type  1   force =     0.00000000    0.00000000    0.00000000
     atom   41 type  1   force =     0.00000000    0.00000000    0.00000000
     atom   42 type  1   force =     0.00000000    0.00000000    0.00000000
     atom   43 type  1   force =     0.00000000    0.00000000    0.00000000
     atom   44 type  1   force =     0.00000000    0.00000000    0.00000000
     atom   45 type  2   force =     0.00000000    0.00000000    0.00000000
     atom   46 type  2   force =     0.00000000    0.00000000    0.00000000
     atom   47 type  2   force =     0.00000000    0.00000000    0.00000000
     atom   48 type  2   force =     0.00000000    0.00000000    0.00000000
     atom   49 type  2   force =     0.00000000    0.00000000    0.00000000
     atom   50 type  2   force =     0.00000000    0.00000000    0.00000000
     atom   51 type  2   force =     0.00000000    0.00000000    0.00000000
     atom   52 type  2   force =     0.00000000    0.00000000    0.00000000
     atom   53 type  2   force =     0.00000000    0.00000000    0.00000000
     atom   54 type  2   force =     0.00000000    0.00000000    0.00000000
     atom   55 type  2   force =     0.00000000    0.00000000    0.00000000
     atom   56 type  2   force =     0.00000000    0.00000000    0.00000000
     atom   57 type  2   force =     0.00000000    0.00000000    0.00000000
     atom   58 type  2   force =     0.00000000    0.00000000    0.00000000
     atom   59 type  2   force =     0.00000000    0.00000000    0.00000000
     atom   60 type  2   force =     0.00000000    0.00000000    0.00000000
     atom   61 type  2   force =     0.00000000    0.00000000    0.00000000
     atom   62 type  2   force =     0.00000000    0.00000000    0.00000000
     atom   63 type  2   force =     0.00000000    0.00000000    0.00000000
     atom   64 type  2   force =     0.00000000    0.00000000    0.00000000
     atom   65 type  2   force =     0.00000000    0.00000000    0.00000000
     atom   66 type  2   force =     0.00000000    0.00000000    0.00000000
     The SCF correction term to forces
     atom    1 type  1   force =     0.00002549    0.00000335   -0.00000944
     atom    2 type  1   force =    -0.00000831   -0.00000071   -0.00002304
     atom    3 type  1   force =    -0.00001945   -0.00000700    0.00000021
     atom    4 type  1   force =     0.00000286   -0.00002140    0.00001429
     atom    5 type  1   force =    -0.00002412    0.00000763    0.00001136
     atom    6 type  1   force =     0.00001454    0.00001539    0.00002282
     atom    7 type  1   force =     0.00000930   -0.00000024    0.00001873
     atom    8 type  1   force =     0.00001069    0.00000952    0.00000547
     atom    9 type  1   force =     0.00002432    0.00000699    0.00000152
     atom   10 type  1   force =     0.00000237    0.00000434   -0.00001920
     atom   11 type  1   force =     0.00000474   -0.00000642    0.00000012
     atom   12 type  1   force =     0.00000037    0.00000274    0.00000271
     atom   13 type  1   force =    -0.00000363    0.00000226    0.00000174
     atom   14 type  1   force =    -0.00000904    0.00001131   -0.00000358
     atom   15 type  1   force =    -0.00000009   -0.00000703    0.00000851
     atom   16 type  1   force =     0.00000521   -0.00000734   -0.00000157
     atom   17 type  1   force =     0.00002305    0.00000366    0.00001755
     atom   18 type  1   force =     0.00002173   -0.00001669   -0.00000859
     atom   19 type  1   force =    -0.00000085   -0.00000905   -0.00000665
     atom   20 type  1   force =    -0.00000321    0.00000864   -0.00000898
     atom   21 type  1   force =     0.00000026    0.00000862    0.00000643
     atom   22 type  1   force =     0.00000197    0.00000943    0.00001187
     atom   23 type  1   force =     0.00000321    0.00000740   -0.00001121
     atom   24 type  1   force =    -0.00000441    0.00000392    0.00000566
     atom   25 type  1   force =     0.00000182    0.00000103   -0.00000583
     atom   26 type  1   force =     0.00001051   -0.00000292    0.00000020
     atom   27 type  1   force =    -0.00000783   -0.00000495   -0.00000652
     atom   28 type  1   force =    -0.00000499    0.00000081   -0.00000584
     atom   29 type  1   force =     0.00003775    0.00001714   -0.00001625
     atom   30 type  1   force =    -0.00002765    0.00001911   -0.00002082
     atom   31 type  1   force =     0.00000007    0.00000076    0.00000014
     atom   32 type  1   force =     0.00000632    0.00000304   -0.00000022
     atom   33 type  1   force =    -0.00000130    0.00000729    0.00001705
     atom   34 type  1   force =    -0.00000304    0.00000634    0.00001091
     atom   35 type  1   force =     0.00000274    0.00000482   -0.00001921
     atom   36 type  1   force =    -0.00000076    0.00002221   -0.00000479
     atom   37 type  1   force =     0.00002907    0.00000302   -0.00000795
     atom   38 type  1   force =     0.00001109   -0.00002409    0.00000514
     atom   39 type  1   force =    -0.00001959    0.00002239    0.00000396
     atom   40 type  1   force =     0.00000239    0.00002375   -0.00000365
     atom   41 type  1   force =     0.00001708   -0.00000244   -0.00000091
     atom   42 type  1   force =     0.00000975   -0.00000071    0.00001143
     atom   43 type  1   force =     0.00000477   -0.00001561    0.00001478
     atom   44 type  1   force =     0.00001445    0.00000230    0.00001945
     atom   45 type  2   force =     0.00007459    0.00001993   -0.00010543
     atom   46 type  2   force =    -0.00006931   -0.00010906    0.00002606
     atom   47 type  2   force =    -0.00005793    0.00006770    0.00011709
     atom   48 type  2   force =     0.00009931    0.00003374    0.00012624
     atom   49 type  2   force =     0.00009036    0.00002194   -0.00004368
     atom   50 type  2   force =    -0.00007526    0.00001899   -0.00002623
     atom   51 type  2   force =    -0.00011633    0.00004770    0.00004962
     atom   52 type  2   force =     0.00002942   -0.00004026    0.00000421
     atom   53 type  2   force =     0.00018746   -0.00006774    0.00004268
     atom   54 type  2   force =    -0.00000311    0.00001909   -0.00006819
     atom   55 type  2   force =    -0.00001537    0.00008913    0.00013034
     atom   56 type  2   force =    -0.00012234    0.00006439    0.00000156
     atom   57 type  2   force =     0.00009045   -0.00009595   -0.00006975
     atom   58 type  2   force =    -0.00005541   -0.00000052   -0.00007692
     atom   59 type  2   force =     0.00008807    0.00007072   -0.00006844
     atom   60 type  2   force =     0.00006880   -0.00000544    0.00001882
     atom   61 type  2   force =    -0.00007660    0.00011467    0.00011526
     atom   62 type  2   force =     0.00001258    0.00010723   -0.00010277
     atom   63 type  2   force =     0.00015014   -0.00010662   -0.00000497
     atom   64 type  2   force =    -0.00003692    0.00018739    0.00001260
     atom   65 type  2   force =     0.00012904    0.00000972    0.00008384
     atom   66 type  2   force =     0.00009670   -0.00007913    0.00015894

     Total force =     0.484386     Total SCF correction =     0.000689


     Computing stress (Cartesian axis) and pressure


     negative rho (up, down):  4.957E-01 0.000E+00
          total   stress  (Ry/bohr**3)                   (kbar)     P=       -2.91
  -0.00001985  -0.00000009  -0.00000084           -2.92       -0.01       -0.12
  -0.00000009  -0.00002018  -0.00000014           -0.01       -2.97       -0.02
  -0.00000084  -0.00000014  -0.00001935           -0.12       -0.02       -2.85


     init_run     :      9.22s CPU      9.66s WALL (       1 calls)
     electrons    :     74.17s CPU     79.00s WALL (       1 calls)
     forces       :      5.56s CPU      5.85s WALL (       1 calls)
     stress       :     16.64s CPU     16.95s WALL (       1 calls)

     Called by init_run:
     wfcinit      :      3.62s CPU      3.83s WALL (       1 calls)
     potinit      :      1.61s CPU      1.66s WALL (       1 calls)
     hinit0       :      1.47s CPU      1.53s WALL (       1 calls)

     Called by electrons:
     c_bands      :     50.18s CPU     52.63s WALL (      10 calls)
     sum_band     :     13.52s CPU     14.59s WALL (      10 calls)
     v_of_rho     :      6.56s CPU      7.06s WALL (      11 calls)
     newd         :      2.88s CPU      3.72s WALL (      11 calls)
     PAW_pot      :      1.06s CPU      1.07s WALL (      11 calls)
     mix_rho      :      0.99s CPU      1.07s WALL (      10 calls)

     Called by c_bands:
     init_us_2    :      0.67s CPU      0.69s WALL (      21 calls)
     init_us_2:cp :      0.67s CPU      0.69s WALL (      21 calls)
     regterg      :     49.28s CPU     51.72s WALL (      10 calls)

     Called by *egterg:
     rdiaghg      :      0.23s CPU      0.24s WALL (      32 calls)
     h_psi        :     44.80s CPU     46.93s WALL (      33 calls)
     s_psi        :      1.42s CPU      1.42s WALL (      33 calls)
     g_psi        :      0.14s CPU      0.14s WALL (      22 calls)

     Called by h_psi:
     h_psi:calbec :      1.37s CPU      1.38s WALL (      33 calls)
     vloc_psi     :     41.65s CPU     43.76s WALL (      33 calls)
     add_vuspsi   :      1.41s CPU      1.42s WALL (      33 calls)

     General routines
     calbec       :      2.04s CPU      2.06s WALL (      48 calls)
     fft          :      3.61s CPU      4.08s WALL (     119 calls)
     ffts         :      0.24s CPU      0.27s WALL (      10 calls)
     fftw         :     36.42s CPU     38.78s WALL (    2950 calls)

     Parallel routines

     PWSCF        :   1m45.70s CPU   1m51.63s WALL


   This run was terminated on:   0: 7:17  28Mar2024            

=------------------------------------------------------------------------------=
   JOB DONE.
=------------------------------------------------------------------------------=
