
     Program PWSCF v.7.2 starts on 27Mar2024 at  8:27:11 

     This program is part of the open-source Quantum ESPRESSO suite
     for quantum simulation of materials; please cite
         "P. Giannozzi et al., J. Phys.:Condens. Matter 21 395502 (2009);
         "P. Giannozzi et al., J. Phys.:Condens. Matter 29 465901 (2017);
         "P. Giannozzi et al., J. Chem. Phys. 152 154105 (2020);
          URL http://www.quantum-espresso.org", 
     in publications or presentations arising from this work. More details at
     http://www.quantum-espresso.org/quote

     Parallel version (MPI), running on    32 processors

     MPI processes distributed on     1 nodes
     170168 MiB available memory on the printing compute node when the environment starts

     Reading input from pw-wt-176.in
Warning: card &CELL ignored
Warning: card / ignored

     Current dimensions of program PWSCF are:
     Max number of different atomic species (ntypx) = 10
     Max number of k-points (npk) =  40000
     Max angular momentum in pseudopotentials (lmaxx) =  4
     file O.pbe-n-kjpaw_psl.0.1.UPF: wavefunction(s)  2P renormalized

     IMPORTANT: XC functional enforced from input :
     Exchange-correlation= PBE
                           (   1   4   3   4   0   0   0)
     Any further DFT definition will be discarded
     Please, verify this is what you really want


     gamma-point specific algorithms are used

     R & G space division:  proc/nbgrp/npool/nimage =      32
     Subspace diagonalization in iterative solution of the eigenvalue problem:
     a serial algorithm will be used


     Parallelization info
     --------------------
     sticks:   dense  smooth     PW     G-vecs:    dense   smooth      PW
     Min        1707    1707    426               301015   301015   37634
     Max        1710    1710    428               301034   301034   37648
     Sum       54693   54693  13673              9632757  9632757 1204469

     Using Slab Decomposition



     bravais-lattice index     =            0
     lattice parameter (alat)  =      75.7119  a.u.
     unit-cell volume          =  434002.3113 (a.u.)^3
     number of atoms/cell      =           66
     number of atomic types    =            2
     number of electrons       =       176.00
     number of Kohn-Sham states=           88
     kinetic-energy cutoff     =      30.0000  Ry
     charge density cutoff     =     120.0000  Ry
     scf convergence threshold =      1.0E-06
     mixing beta               =       0.5000
     number of iterations used =            8  plain     mixing
     Exchange-correlation= PBE
                           (   1   4   3   4   0   0   0)

     celldm(1)=  75.711877  celldm(2)=   0.000000  celldm(3)=   0.000000
     celldm(4)=   0.000000  celldm(5)=   0.000000  celldm(6)=   0.000000

     crystal axes: (cart. coord. in units of alat)
               a(1) = (   1.000000   0.000000   0.000000 )  
               a(2) = (   0.000000   1.000000   0.000000 )  
               a(3) = (   0.000000   0.000000   1.000000 )  

     reciprocal axes: (cart. coord. in units 2 pi/alat)
               b(1) = (  1.000000  0.000000  0.000000 )  
               b(2) = (  0.000000  1.000000  0.000000 )  
               b(3) = (  0.000000  0.000000  1.000000 )  


     PseudoPot. # 1 for H  read from file:
     /share/pfaendtnergroup/rverma7/QE_PP/H.pbe-rrkjus_psl.1.0.0.UPF
     MD5 check sum: f52b6d4d1c606e5624b1dc7b2218f220
     Pseudo is Ultrasoft, Zval =  1.0
     Generated using "atomic" code by A. Dal Corso  v.5.1
     Using radial grid of  929 points,  2 beta functions with: 
                l(1) =   0
                l(2) =   0
     Q(r) pseudized with 0 coefficients 


     PseudoPot. # 2 for O  read from file:
     /share/pfaendtnergroup/rverma7/QE_PP/O.pbe-n-kjpaw_psl.0.1.UPF
     MD5 check sum: 0234752ac141de4415c5fc33072bef88
     Pseudo is Projector augmented-wave + core cor, Zval =  6.0
     Generated using "atomic" code by A. Dal Corso  v.5.0.99 svn rev. 10869
     Shape of augmentation charge: BESSEL
     Using radial grid of 1095 points,  4 beta functions with: 
                l(1) =   0
                l(2) =   0
                l(3) =   1
                l(4) =   1
     Q(r) pseudized with 0 coefficients 


     atomic species   valence    mass     pseudopotential
        H              1.00     1.00800     H ( 1.00)
        O              6.00    15.99900     O ( 1.00)

     No symmetry found



   Cartesian axes

     site n.     atom                  positions (alat units)
         1           H   tau(   1) = (   0.2696868   0.2947960   0.3200300  )
         2           H   tau(   2) = (   0.2802196   0.2667915   0.2901535  )
         3           H   tau(   3) = (   0.2645950   0.2530638   0.4746287  )
         4           H   tau(   4) = (   0.2449270   0.2292525   0.4490453  )
         5           H   tau(   5) = (   0.1908648   0.2598278   0.5264445  )
         6           H   tau(   6) = (   0.2162985   0.2722326   0.4995882  )
         7           H   tau(   7) = (   0.3385249   0.2010483   0.2949956  )
         8           H   tau(   8) = (   0.3121677   0.1757394   0.2741545  )
         9           H   tau(   9) = (   0.3416199   0.3308623   0.3955323  )
        10           H   tau(  10) = (   0.3194309   0.3653313   0.3896918  )
        11           H   tau(  11) = (   0.2367902   0.3192812   0.4129290  )
        12           H   tau(  12) = (   0.2049170   0.2951953   0.4113316  )
        13           H   tau(  13) = (   0.3354299   0.2623736   0.4466242  )
        14           H   tau(  14) = (   0.3679271   0.2720080   0.4261575  )
        15           H   tau(  15) = (   0.3582429   0.2833146   0.3743167  )
        16           H   tau(  16) = (   0.3973044   0.2957444   0.3844003  )
        17           H   tau(  17) = (   0.3412455   0.1318108   0.4964183  )
        18           H   tau(  18) = (   0.3331337   0.1541495   0.4662923  )
        19           H   tau(  19) = (   0.3486335   0.1069512   0.3936353  )
        20           H   tau(  20) = (   0.3201048   0.0954199   0.3654811  )
        21           H   tau(  21) = (   0.3417946   0.2094097   0.4477225  )
        22           H   tau(  22) = (   0.3008361   0.2071134   0.4497691  )
        23           H   tau(  23) = (   0.3230500   0.2670910   0.3270436  )
        24           H   tau(  24) = (   0.3559715   0.2409335   0.3339573  )
        25           H   tau(  25) = (   0.1753151   0.2398852   0.4230625  )
        26           H   tau(  26) = (   0.1938849   0.2529889   0.4574816  )
        27           H   tau(  27) = (   0.3362286   0.1957070   0.3551229  )
        28           H   tau(  28) = (   0.3709223   0.1769125   0.3413453  )
        29           H   tau(  29) = (   0.2860102   0.2289530   0.3777611  )
        30           H   tau(  30) = (   0.2714589   0.2573318   0.3558967  )
        31           H   tau(  31) = (   0.2771746   0.2783477   0.4126544  )
        32           H   tau(  32) = (   0.2924248   0.3142394   0.4184949  )
        33           H   tau(  33) = (   0.2699863   0.3147385   0.4979159  )
        34           H   tau(  34) = (   0.2620492   0.2983901   0.4649694  )
        35           H   tau(  35) = (   0.2202671   0.3254462   0.3189817  )
        36           H   tau(  36) = (   0.2363909   0.3221765   0.3565955  )
        37           H   tau(  37) = (   0.3191564   0.1867715   0.4043679  )
        38           H   tau(  38) = (   0.3130663   0.1613129   0.3736179  )
        39           H   tau(  39) = (   0.2849869   0.3613378   0.3401473  )
        40           H   tau(  40) = (   0.3202047   0.3571197   0.3213029  )
        41           H   tau(  41) = (   0.2750780   0.2507176   0.2326220  )
        42           H   tau(  42) = (   0.3045052   0.2350930   0.2584051  )
        43           H   tau(  43) = (   0.3916136   0.0919755   0.4428803  )
        44           H   tau(  44) = (   0.3524273   0.0989392   0.4439286  )
        45           O   tau(  45) = (   0.2867341   0.2754274   0.3143142  )
        46           O   tau(  46) = (   0.2648446   0.2307750   0.4626981  )
        47           O   tau(  47) = (   0.1942094   0.2591539   0.5012105  )
        48           O   tau(  48) = (   0.3243729   0.1978535   0.2729814  )
        49           O   tau(  49) = (   0.3220766   0.3449145   0.4052914  )
        50           O   tau(  50) = (   0.2147510   0.3153625   0.4006240  )
        51           O   tau(  51) = (   0.3572944   0.2531886   0.4402097  )
        52           O   tau(  52) = (   0.3726944   0.2952702   0.3924123  )
        53           O   tau(  53) = (   0.3444902   0.1322351   0.4709347  )
        54           O   tau(  54) = (   0.3327093   0.1155373   0.3765631  )
        55           O   tau(  55) = (   0.3219019   0.1920629   0.4494197  )
        56           O   tau(  56) = (   0.3476101   0.2641208   0.3350805  )
        57           O   tau(  57) = (   0.1948084   0.2521902   0.4316735  )
        58           O   tau(  58) = (   0.3551479   0.1943841   0.3356296  )
        59           O   tau(  59) = (   0.2797704   0.2525895   0.3802321  )
        60           O   tau(  60) = (   0.2742543   0.2971671   0.4286035  )
        61           O   tau(  61) = (   0.2598028   0.2937976   0.4895046  )
        62           O   tau(  62) = (   0.2425309   0.3218021   0.3317359  )
        63           O   tau(  63) = (   0.3114689   0.1862973   0.3804817  )
        64           O   tau(  64) = (   0.3084238   0.3716211   0.3400474  )
        65           O   tau(  65) = (   0.2845626   0.2506427   0.2545114  )
        66           O   tau(  66) = (   0.3699488   0.0858605   0.4298265  )

     number of k points=     1
                       cart. coord. in units 2pi/alat
        k(    1) = (   0.0000000   0.0000000   0.0000000), wk =   2.0000000

     Dense  grid:  4816379 G-vectors     FFT dimensions: ( 270, 270, 270)

     Estimated max dynamical RAM per process >     612.29 MB

     Estimated total dynamical RAM >      19.13 GB

     Check: negative core charge=   -0.000006

     Initial potential from superposition of free atoms

     starting charge     175.9995, renormalised to     176.0000

     negative rho (up, down):  3.721E-01 0.000E+00
     Starting wfcs are  132 randomized atomic wfcs
     Checking if some PAW data can be deallocated... 

     total cpu time spent up to now is        9.4 secs

     Self-consistent Calculation

     iteration #  1     ecut=    30.00 Ry     beta= 0.50
     Davidson diagonalization with overlap
     ethr =  1.00E-02,  avg # of iterations =  2.0

     negative rho (up, down):  4.391E-01 0.000E+00

     total cpu time spent up to now is       18.4 secs

     total energy              =    -965.73116885 Ry
     estimated scf accuracy    <       6.97135605 Ry

     iteration #  2     ecut=    30.00 Ry     beta= 0.50
     Davidson diagonalization with overlap
     ethr =  3.96E-03,  avg # of iterations =  2.0

     negative rho (up, down):  4.588E-01 0.000E+00

     total cpu time spent up to now is       27.9 secs

     total energy              =    -967.70500350 Ry
     estimated scf accuracy    <       1.06144846 Ry

     iteration #  3     ecut=    30.00 Ry     beta= 0.50
     Davidson diagonalization with overlap
     ethr =  6.03E-04,  avg # of iterations =  2.0

     negative rho (up, down):  5.035E-01 0.000E+00

     total cpu time spent up to now is       36.2 secs

     total energy              =    -967.76156835 Ry
     estimated scf accuracy    <       0.13452202 Ry

     iteration #  4     ecut=    30.00 Ry     beta= 0.50
     Davidson diagonalization with overlap
     ethr =  7.64E-05,  avg # of iterations =  3.0

     negative rho (up, down):  5.042E-01 0.000E+00

     total cpu time spent up to now is       46.0 secs

     total energy              =    -967.78727457 Ry
     estimated scf accuracy    <       0.04225417 Ry

     iteration #  5     ecut=    30.00 Ry     beta= 0.50
     Davidson diagonalization with overlap
     ethr =  2.40E-05,  avg # of iterations =  2.0

     negative rho (up, down):  5.032E-01 0.000E+00

     total cpu time spent up to now is       53.8 secs

     total energy              =    -967.78783388 Ry
     estimated scf accuracy    <       0.00851403 Ry

     iteration #  6     ecut=    30.00 Ry     beta= 0.50
     Davidson diagonalization with overlap
     ethr =  4.84E-06,  avg # of iterations =  2.0

     negative rho (up, down):  5.025E-01 0.000E+00

     total cpu time spent up to now is       61.7 secs

     total energy              =    -967.78793191 Ry
     estimated scf accuracy    <       0.00217877 Ry

     iteration #  7     ecut=    30.00 Ry     beta= 0.50
     Davidson diagonalization with overlap
     ethr =  1.24E-06,  avg # of iterations =  2.0

     negative rho (up, down):  5.019E-01 0.000E+00

     total cpu time spent up to now is       70.0 secs

     total energy              =    -967.78799881 Ry
     estimated scf accuracy    <       0.00045524 Ry

     iteration #  8     ecut=    30.00 Ry     beta= 0.50
     Davidson diagonalization with overlap
     ethr =  2.59E-07,  avg # of iterations =  2.0

     negative rho (up, down):  5.018E-01 0.000E+00

     total cpu time spent up to now is       79.4 secs

     total energy              =    -967.78811139 Ry
     estimated scf accuracy    <       0.00002197 Ry

     iteration #  9     ecut=    30.00 Ry     beta= 0.50
     Davidson diagonalization with overlap
     ethr =  1.25E-08,  avg # of iterations =  3.0

     negative rho (up, down):  5.019E-01 0.000E+00

     total cpu time spent up to now is       88.7 secs

     total energy              =    -967.78810966 Ry
     estimated scf accuracy    <       0.00002204 Ry

     iteration # 10     ecut=    30.00 Ry     beta= 0.50
     Davidson diagonalization with overlap
     ethr =  1.25E-08,  avg # of iterations =  2.0

     negative rho (up, down):  5.019E-01 0.000E+00

     total cpu time spent up to now is       96.7 secs

     total energy              =    -967.78811034 Ry
     estimated scf accuracy    <       0.00000267 Ry

     iteration # 11     ecut=    30.00 Ry     beta= 0.50
     Davidson diagonalization with overlap
     ethr =  1.52E-09,  avg # of iterations =  2.0

     negative rho (up, down):  5.020E-01 0.000E+00

     total cpu time spent up to now is      105.9 secs

     End of self-consistent calculation

          k = 0.0000 0.0000 0.0000 (602235 PWs)   bands (ev):

   -25.6914 -25.6385 -25.5760 -25.2931 -25.2634 -25.1606 -25.0579 -25.0045
   -24.8955 -24.8481 -24.8231 -24.7453 -24.6856 -24.5687 -24.4721 -24.3685
   -24.3195 -24.2762 -24.2447 -24.1004 -24.0226 -23.5466 -13.7058 -13.5496
   -13.4371 -13.3371 -13.2889 -13.0180 -12.9263 -12.8436 -12.7071 -12.5809
   -12.5429 -12.4920 -12.4644 -12.4333 -12.3766 -12.3014 -12.2121 -12.1258
   -12.0853 -12.0163 -12.0094 -11.8432 -10.8945 -10.6139 -10.4505 -10.3708
   -10.2972  -9.9949  -9.9079  -9.8098  -9.6535  -9.5677  -9.3688  -9.2127
    -9.1456  -8.9621  -8.8651  -8.7760  -8.6691  -8.6398  -8.4238  -8.3740
    -8.2328  -7.9748  -7.7050  -7.5771  -7.5130  -7.4970  -7.4705  -7.3419
    -7.3001  -7.2779  -7.2690  -7.2269  -7.1716  -7.1362  -7.0363  -6.9605
    -6.9085  -6.8797  -6.8374  -6.6690  -6.5879  -6.5624  -6.4434  -6.1635

     highest occupied level (ev):    -6.1635

!    total energy              =    -967.78811104 Ry
     estimated scf accuracy    <       0.00000008 Ry

     The total energy is the sum of the following terms:
     one-electron contribution =   -5597.44772417 Ry
     hartree contribution      =    2834.33722671 Ry
     xc contribution           =    -193.41582235 Ry
     ewald contribution        =    2198.05875661 Ry
     one-center paw contrib.   =    -209.32054784 Ry

     convergence has been achieved in  11 iterations

     negative rho (up, down):  5.020E-01 0.000E+00

     Forces acting on atoms (cartesian axes, Ry/au):

     atom    1 type  1   force =     0.04436060   -0.05024398   -0.01842208
     atom    2 type  1   force =     0.02082727    0.02435409    0.05672052
     atom    3 type  1   force =     0.00360175   -0.03669924   -0.01626836
     atom    4 type  1   force =    -0.01966403    0.00833706   -0.01331418
     atom    5 type  1   force =    -0.00246895   -0.01002963   -0.06622303
     atom    6 type  1   force =    -0.04015270   -0.01973222    0.00135691
     atom    7 type  1   force =    -0.04483458   -0.03845456   -0.04902204
     atom    8 type  1   force =     0.03421174    0.05507654    0.01118425
     atom    9 type  1   force =    -0.04428019    0.04291079    0.02575297
     atom   10 type  1   force =     0.00845250   -0.07273915    0.02840032
     atom   11 type  1   force =    -0.04504646   -0.03077300   -0.01812839
     atom   12 type  1   force =     0.01304576    0.00124656   -0.00510582
     atom   13 type  1   force =     0.00745429    0.00309670   -0.00174477
     atom   14 type  1   force =    -0.02342459   -0.03657124    0.00846497
     atom   15 type  1   force =     0.04317824    0.00330256   -0.00144386
     atom   16 type  1   force =    -0.09306218   -0.00383587    0.01369620
     atom   17 type  1   force =     0.01499422   -0.01411071   -0.07369190
     atom   18 type  1   force =     0.00427523   -0.00020237   -0.02115099
     atom   19 type  1   force =    -0.00108030   -0.01833783   -0.00271910
     atom   20 type  1   force =     0.06200529    0.07527677    0.05670879
     atom   21 type  1   force =    -0.06418335   -0.04340170    0.00458854
     atom   22 type  1   force =     0.03293083   -0.02468752    0.01979701
     atom   23 type  1   force =     0.04191660   -0.01389919    0.01087901
     atom   24 type  1   force =    -0.01746902   -0.00091860   -0.00139818
     atom   25 type  1   force =     0.01002426    0.00674685    0.02089254
     atom   26 type  1   force =    -0.02586310   -0.01054616   -0.06125478
     atom   27 type  1   force =     0.05154006   -0.01954588   -0.03191155
     atom   28 type  1   force =     0.00376806   -0.00893477    0.00620971
     atom   29 type  1   force =     0.00732590   -0.00576805    0.01467357
     atom   30 type  1   force =     0.03574616    0.00048952    0.06575934
     atom   31 type  1   force =    -0.01455483   -0.02407887   -0.01130456
     atom   32 type  1   force =    -0.05372033   -0.03432883    0.04004801
     atom   33 type  1   force =    -0.00868533   -0.02535779    0.01398826
     atom   34 type  1   force =     0.00762607   -0.01103770   -0.02611315
     atom   35 type  1   force =     0.07630903   -0.01324141    0.05116933
     atom   36 type  1   force =    -0.01299559   -0.01405360   -0.03392131
     atom   37 type  1   force =    -0.00340288   -0.00197943    0.00860511
     atom   38 type  1   force =    -0.00444846    0.05319890    0.03369188
     atom   39 type  1   force =     0.05517231    0.02135856   -0.00499066
     atom   40 type  1   force =    -0.04872308    0.05896429    0.08150895
     atom   41 type  1   force =     0.00233278   -0.01305667   -0.03424446
     atom   42 type  1   force =    -0.04077498   -0.00220912   -0.02458945
     atom   43 type  1   force =    -0.07798831   -0.01897679   -0.05184874
     atom   44 type  1   force =     0.04949340   -0.02485692   -0.02094204
     atom   45 type  2   force =    -0.07646443    0.02418674   -0.03339192
     atom   46 type  2   force =     0.03054933    0.00724249    0.02529579
     atom   47 type  2   force =     0.05457450    0.04102605    0.06434480
     atom   48 type  2   force =     0.01686982   -0.01554881    0.03995641
     atom   49 type  2   force =     0.03485356    0.00812812   -0.04562680
     atom   50 type  2   force =     0.03067334    0.02665587    0.00532655
     atom   51 type  2   force =     0.00242189    0.01379742    0.00555841
     atom   52 type  2   force =     0.04866144    0.00405821   -0.04222457
     atom   53 type  2   force =    -0.02396702    0.01576145    0.09953499
     atom   54 type  2   force =    -0.05859083   -0.05122782   -0.05500923
     atom   55 type  2   force =     0.02920266    0.08443873   -0.02840111
     atom   56 type  2   force =    -0.00702459    0.03054133    0.01130085
     atom   57 type  2   force =     0.00797694    0.00576496    0.04298564
     atom   58 type  2   force =    -0.04061200    0.03703293    0.00748263
     atom   59 type  2   force =    -0.03717598   -0.00329488   -0.08255662
     atom   60 type  2   force =     0.08724012    0.09369967   -0.05339113
     atom   61 type  2   force =    -0.00916113    0.03232981    0.03405632
     atom   62 type  2   force =    -0.07813624    0.03256820    0.00142380
     atom   63 type  2   force =    -0.00575091   -0.06418706   -0.01995303
     atom   64 type  2   force =    -0.01020462   -0.07879435   -0.07821100
     atom   65 type  2   force =     0.03424505   -0.00312000    0.05128843
     atom   66 type  2   force =     0.02605003    0.04719054    0.06586800
     The non-local contrib.  to forces
     atom    1 type  1   force =     0.04875292   -0.05642436   -0.01780834
     atom    2 type  1   force =     0.01796224    0.02571023    0.06935393
     atom    3 type  1   force =    -0.00219750   -0.08336317   -0.04744459
     atom    4 type  1   force =     0.09335241    0.01023099    0.06559960
     atom    5 type  1   force =     0.01376226   -0.00161550   -0.09247755
     atom    6 type  1   force =    -0.07810694   -0.04623208    0.00755492
     atom    7 type  1   force =    -0.04488184   -0.01242220   -0.06630978
     atom    8 type  1   force =     0.04712571    0.08359044   -0.00119938
     atom    9 type  1   force =    -0.06554669    0.04871943    0.03003233
     atom   10 type  1   force =     0.01054901   -0.07171139    0.05321626
     atom   11 type  1   force =    -0.08023013   -0.01567660   -0.04305124
     atom   12 type  1   force =     0.04310190    0.08338691   -0.04301643
     atom   13 type  1   force =     0.09578708   -0.03805352   -0.02914902
     atom   14 type  1   force =    -0.03765297   -0.06183627    0.04677445
     atom   15 type  1   force =     0.04928133    0.03809255    0.05729049
     atom   16 type  1   force =    -0.08501839   -0.00283295    0.02501512
     atom   17 type  1   force =     0.01053118    0.00247370   -0.08966183
     atom   18 type  1   force =     0.04391405   -0.08560515    0.01983115
     atom   19 type  1   force =    -0.06706314    0.03213085   -0.07079822
     atom   20 type  1   force =     0.04194789    0.06248725    0.03754656
     atom   21 type  1   force =    -0.06280926   -0.05228951    0.00525610
     atom   22 type  1   force =     0.07264769   -0.04913621   -0.00198462
     atom   23 type  1   force =     0.07617060   -0.01301345    0.02452713
     atom   24 type  1   force =    -0.03921513    0.09768758    0.00399337
     atom   25 type  1   force =     0.08316579    0.05290210    0.04106237
     atom   26 type  1   force =     0.00046831   -0.00447899   -0.08865397
     atom   27 type  1   force =     0.04323347   -0.00736776   -0.04184471
     atom   28 type  1   force =    -0.07464156    0.08078169   -0.02458036
     atom   29 type  1   force =    -0.02807831    0.10399864    0.00961402
     atom   30 type  1   force =     0.02644834   -0.01648985    0.07855302
     atom   31 type  1   force =    -0.01132564    0.07743753    0.06478315
     atom   32 type  1   force =    -0.04980310   -0.04779723    0.02717977
     atom   33 type  1   force =    -0.04255001   -0.08760448   -0.03625759
     atom   34 type  1   force =    -0.00801313   -0.01642521    0.09304893
     atom   35 type  1   force =     0.07471814   -0.01254025    0.04549922
     atom   36 type  1   force =     0.02036467   -0.00087127   -0.09062530
     atom   37 type  1   force =    -0.02888626   -0.00358724   -0.09380738
     atom   38 type  1   force =    -0.00492526    0.08514201    0.02477744
     atom   39 type  1   force =     0.08594030    0.03575950   -0.00177114
     atom   40 type  1   force =    -0.03818210    0.04305744    0.05730414
     atom   41 type  1   force =     0.05008267   -0.00326096    0.10788823
     atom   42 type  1   force =    -0.07117649    0.05444451   -0.01815820
     atom   43 type  1   force =    -0.07269962   -0.01877321   -0.04224922
     atom   44 type  1   force =     0.05931906   -0.04278286   -0.04598585
     atom   45 type  2   force =    -1.24030275    0.54914975   -0.87110921
     atom   46 type  2   force =    -1.39019656    1.35587951   -0.33650226
     atom   47 type  2   force =     1.22266171    0.88567811    1.58442269
     atom   48 type  2   force =    -0.14707104   -1.30761197    1.45543285
     atom   49 type  2   force =     0.92004977    0.33331692   -1.70338102
     atom   50 type  2   force =     0.84783886   -1.12810364    1.40903422
     atom   51 type  2   force =    -1.01948507    1.70471086   -0.33309078
     atom   52 type  2   force =     0.84067605   -0.68215919   -1.54304603
     atom   53 type  2   force =    -0.99339935    1.20134028    1.43860064
     atom   54 type  2   force =     0.13579542   -1.97546983    0.39823988
     atom   55 type  2   force =    -0.02662414    1.85098143   -0.20000117
     atom   56 type  2   force =    -0.83806119   -1.45535727   -0.32899023
     atom   57 type  2   force =    -1.59873847   -0.86579333    1.08553038
     atom   58 type  2   force =     0.24454336   -1.15435948    1.23341682
     atom   59 type  2   force =    -0.16106534   -1.27464585   -1.50946046
     atom   60 type  2   force =     1.06551307   -0.09216174   -1.31780905
     atom   61 type  2   force =     0.72744901    1.65851620   -0.76403170
     atom   62 type  2   force =    -1.84752471    0.19661486    0.67607880
     atom   63 type  2   force =     0.79558161   -1.43061852    0.85201866
     atom   64 type  2   force =    -0.83788430   -1.78626583   -1.21626020
     atom   65 type  2   force =     0.50377582   -0.91096373   -1.42698009
     atom   66 type  2   force =     0.37413797    1.37233005    1.67160753
     The ionic contribution  to forces
     atom    1 type  1   force =    -2.03248735    2.26965894   -1.27084747
     atom    2 type  1   force =    -1.57576396   -0.26764890   -3.54158179
     atom    3 type  1   force =    -0.07009643    1.52916265    3.32098372
     atom    4 type  1   force =    -3.81693889   -1.80192286   -1.03483737
     atom    5 type  1   force =    -1.72653642   -0.02899399    4.84132456
     atom    6 type  1   force =     0.92723392    1.72142424    1.87156128
     atom    7 type  1   force =     2.11922805   -0.57288629   -0.07049416
     atom    8 type  1   force =    -1.74832235   -4.26304582   -1.57749971
     atom    9 type  1   force =     3.21567612    0.65401633   -0.67488645
     atom   10 type  1   force =     0.35580183    4.65237185   -1.05148556
     atom   11 type  1   force =     0.70107736    2.65108515    1.57852235
     atom   12 type  1   force =    -3.49905932   -1.37314317    1.02918743
     atom   13 type  1   force =    -1.54654657    1.66355800    2.64584742
     atom   14 type  1   force =     3.24597710    2.10273507    0.23205607
     atom   15 type  1   force =     0.40659135   -0.26257712   -1.85994562
     atom   16 type  1   force =     5.32584111    0.98517517   -0.96764787
     atom   17 type  1   force =    -0.02913478   -1.17137306    4.80148079
     atom   18 type  1   force =    -0.90756359    0.98203775    1.11269059
     atom   19 type  1   force =     2.35401618   -2.47077106    1.34601043
     atom   20 type  1   force =    -1.77889126   -4.07103510   -2.02801046
     atom   21 type  1   force =     3.38820418    0.72176350    1.36480474
     atom   22 type  1   force =    -2.10832517    0.22533295    1.38005551
     atom   23 type  1   force =    -0.93249285    0.76094641   -2.03676468
     atom   24 type  1   force =     3.05967702   -2.44253333   -1.30269213
     atom   25 type  1   force =    -4.81878769   -2.43441581   -1.41936217
     atom   26 type  1   force =    -2.24183325   -0.41322005    2.93130283
     atom   27 type  1   force =    -0.18106558   -0.68106239    0.32918064
     atom   28 type  1   force =     4.21536814   -3.66118152   -0.11961053
     atom   29 type  1   force =    -0.33451758   -3.75797128   -0.71846819
     atom   30 type  1   force =    -2.36901441   -0.10590931   -3.06198939
     atom   31 type  1   force =    -0.01325494   -1.50029676   -1.11900725
     atom   32 type  1   force =     1.60613986    3.05736939    0.05048274
     atom   33 type  1   force =     1.43106837    4.26834781    3.35669407
     atom   34 type  1   force =    -0.38235893    2.06006875   -0.40211375
     atom   35 type  1   force =    -4.26293497    1.50240142   -2.91162168
     atom   36 type  1   force =    -2.08160149    1.50960249    1.71644795
     atom   37 type  1   force =     1.06111428   -1.27978847    2.63375930
     atom   38 type  1   force =    -0.63323716   -4.22075566   -1.30113529
     atom   39 type  1   force =    -2.90145671    1.12140028   -0.86909916
     atom   40 type  1   force =     2.09380526    0.24757172   -3.40752126
     atom   41 type  1   force =    -2.09979013    0.10047442   -5.34871537
     atom   42 type  1   force =     2.11161698   -1.56041741   -1.95693540
     atom   43 type  1   force =     3.94071326   -0.66542093    1.89917898
     atom   44 type  1   force =    -1.48006951   -0.78031236    1.87940781
     atom   45 type  2   force =    -1.45486590    2.08496268   -8.71283141
     atom   46 type  2   force =    -1.63113675   -9.00802353    9.94819927
     atom   47 type  2   force =   -11.78582447   -2.09304118    8.23432962
     atom   48 type  2   force =     2.37809580   -5.20628232  -13.72489300
     atom   49 type  2   force =     3.36909753   12.82546752    6.73793436
     atom   50 type  2   force =   -13.65504514   10.67270379   -2.84932697
     atom   51 type  2   force =    12.77888888   -1.83969005    9.58820741
     atom   52 type  2   force =    12.82751618    7.73448853    2.69492686
     atom   53 type  2   force =     4.15705912   -9.00310458    7.25083075
     atom   54 type  2   force =    -0.19710452   -8.23613628   -4.99603330
     atom   55 type  2   force =     2.69955462   -8.68617030    8.93485015
     atom   56 type  2   force =    11.64195505    5.66018460   -7.21100670
     atom   57 type  2   force =   -11.02456290   -2.51234388   -1.72496915
     atom   58 type  2   force =     9.90507313   -5.11276873   -8.22043513
     atom   59 type  2   force =    -5.10906047   -0.92384720   -0.33940729
     atom   60 type  2   force =    -2.24254189    8.18917061    6.94028457
     atom   61 type  2   force =    -2.25785571    4.72800536   15.98536345
     atom   62 type  2   force =    -6.69631097    8.09952881   -9.00830923
     atom   63 type  2   force =    -4.26367347   -6.75079019   -2.98238350
     atom   64 type  2   force =     3.53550023   15.36500643   -4.24852765
     atom   65 type  2   force =    -4.40620145    1.71486514  -11.80523754
     atom   66 type  2   force =     5.44437401  -12.70200685   -0.76027209
     The local contribution  to forces
     atom    1 type  1   force =     2.02806313   -2.26348086    1.27011094
     atom    2 type  1   force =     1.57859581    0.26630177    3.52883292
     atom    3 type  1   force =     0.07585625   -1.48250053   -3.28993423
     atom    4 type  1   force =     3.70389546    1.80003716    0.95580992
     atom    5 type  1   force =     1.71026460    0.02058379   -4.81519688
     atom    6 type  1   force =    -0.88931893   -1.69492040   -1.87788088
     atom    7 type  1   force =    -2.11921951    0.54686067    0.08766140
     atom    8 type  1   force =     1.73537259    4.23454743    1.58976032
     atom    9 type  1   force =    -3.19445783   -0.65981041    0.67049315
     atom   10 type  1   force =    -0.35793766   -4.65340016    1.02655597
     atom   11 type  1   force =    -0.66594424   -2.66618358   -1.55372479
     atom   12 type  1   force =     3.46896756    1.29101559   -0.99140296
     atom   13 type  1   force =     1.45818817   -1.62241133   -2.61856580
     atom   14 type  1   force =    -3.23179231   -2.07747291   -0.27047988
     atom   15 type  1   force =    -0.41273170    0.22779493    1.80109313
     atom   16 type  1   force =    -5.33393561   -0.98617189    0.95621274
     atom   17 type  1   force =     0.03356116    1.15479276   -4.78564515
     atom   18 type  1   force =     0.86788957   -0.89663538   -1.15379370
     atom   19 type  1   force =    -2.28807349    2.42030776   -1.27805343
     atom   20 type  1   force =     1.79891426    4.08383848    2.04705698
     atom   21 type  1   force =    -3.38962362   -0.71286978   -1.36558919
     atom   22 type  1   force =     2.06857284   -0.20087997   -1.35838975
     atom   23 type  1   force =     0.89820581   -0.76182576    2.02299758
     atom   24 type  1   force =    -3.03797506    2.34394448    1.29717937
     atom   25 type  1   force =     4.74561431    2.38827250    1.39907473
     atom   26 type  1   force =     2.21546158    0.40715840   -2.90402742
     atom   27 type  1   force =     0.18933935    0.66889104   -0.31937601
     atom   28 type  1   force =    -4.13700700    3.57148553    0.15027146
     atom   29 type  1   force =     0.36987913    3.64822328    0.72341263
     atom   30 type  1   force =     2.37827810    0.12289697    3.04908473
     atom   31 type  1   force =     0.00998052    1.39878942    1.04280686
     atom   32 type  1   force =    -1.61010145   -3.04389898   -0.03773139
     atom   33 type  1   force =    -1.39724861   -4.20610984   -3.30657018
     atom   34 type  1   force =     0.39795892   -2.05468424    0.28283290
     atom   35 type  1   force =     4.26449823   -1.50310069    2.91717700
     atom   36 type  1   force =     2.04820378   -1.52278363   -1.65987087
     atom   37 type  1   force =    -1.03567667    1.28140395   -2.53147213
     atom   38 type  1   force =     0.63367313    4.18882385    1.30993312
     atom   39 type  1   force =     2.87065527   -1.13578865    0.86576296
     atom   40 type  1   force =    -2.10438566   -0.23165005    3.43161400
     atom   41 type  1   force =     2.05201262   -0.11026406    5.20648671
     atom   42 type  1   force =    -2.08126823    1.50377979    1.95038254
     atom   43 type  1   force =    -3.94605351    0.66521784   -1.90890668
     atom   44 type  1   force =     1.47021216    0.79824145   -1.85448528
     atom   45 type  2   force =     2.60521825   -2.60398280    9.54218109
     atom   46 type  2   force =     3.03835960    7.67287135   -9.58925244
     atom   47 type  2   force =    10.62958933    1.25720115   -9.73752168
     atom   48 type  2   force =    -2.21581266    6.48496801   12.32472608
     atom   49 type  2   force =    -4.24465813  -13.14691364   -5.09771064
     atom   50 type  2   force =    12.84613164   -9.52821095    1.45944767
     atom   51 type  2   force =   -11.76697894    0.16581891   -9.25167937
     atom   52 type  2   force =   -13.61001995   -7.05437442   -1.21020423
     atom   53 type  2   force =    -3.19774840    7.82924120   -8.57509483
     atom   54 type  2   force =     0.00345160   10.13931532    4.54604590
     atom   55 type  2   force =    -2.64370202    6.93816868   -8.76496278
     atom   56 type  2   force =   -10.81870421   -4.18848754    7.54812140
     atom   57 type  2   force =    12.61498462    3.37399932    0.69379534
     atom   58 type  2   force =   -10.18656944    6.29235346    7.00658793
     atom   59 type  2   force =     5.23168874    2.18263706    1.75201478
     atom   60 type  2   force =     1.27469402   -8.00355639   -5.68825890
     atom   61 type  2   force =     1.52816594   -6.33775577  -15.19303369
     atom   62 type  2   force =     8.44677000   -8.26012471    8.34003826
     atom   63 type  2   force =     3.46918057    8.10223411    2.11907427
     atom   64 type  2   force =    -2.71585934  -13.67595585    5.37323929
     atom   65 type  2   force =     3.94178762   -0.81615245   13.26855755
     atom   66 type  2   force =    -5.78787720   11.39019433   -0.82821294
     The core correction contribution to forces
     atom    1 type  1   force =     0.00000000    0.00000000    0.00000000
     atom    2 type  1   force =     0.00000000    0.00000000    0.00000000
     atom    3 type  1   force =     0.00000000    0.00000000    0.00000000
     atom    4 type  1   force =     0.00000000    0.00000000    0.00000000
     atom    5 type  1   force =     0.00000000    0.00000000    0.00000000
     atom    6 type  1   force =     0.00000000    0.00000000    0.00000000
     atom    7 type  1   force =     0.00000000    0.00000000    0.00000000
     atom    8 type  1   force =     0.00000000    0.00000000    0.00000000
     atom    9 type  1   force =     0.00000000    0.00000000    0.00000000
     atom   10 type  1   force =     0.00000000    0.00000000    0.00000000
     atom   11 type  1   force =     0.00000000    0.00000000    0.00000000
     atom   12 type  1   force =     0.00000000    0.00000000    0.00000000
     atom   13 type  1   force =     0.00000000    0.00000000    0.00000000
     atom   14 type  1   force =     0.00000000    0.00000000    0.00000000
     atom   15 type  1   force =     0.00000000    0.00000000    0.00000000
     atom   16 type  1   force =     0.00000000    0.00000000    0.00000000
     atom   17 type  1   force =     0.00000000    0.00000000    0.00000000
     atom   18 type  1   force =     0.00000000    0.00000000    0.00000000
     atom   19 type  1   force =     0.00000000    0.00000000    0.00000000
     atom   20 type  1   force =     0.00000000    0.00000000    0.00000000
     atom   21 type  1   force =     0.00000000    0.00000000    0.00000000
     atom   22 type  1   force =     0.00000000    0.00000000    0.00000000
     atom   23 type  1   force =     0.00000000    0.00000000    0.00000000
     atom   24 type  1   force =     0.00000000    0.00000000    0.00000000
     atom   25 type  1   force =     0.00000000    0.00000000    0.00000000
     atom   26 type  1   force =     0.00000000    0.00000000    0.00000000
     atom   27 type  1   force =     0.00000000    0.00000000    0.00000000
     atom   28 type  1   force =     0.00000000    0.00000000    0.00000000
     atom   29 type  1   force =     0.00000000    0.00000000    0.00000000
     atom   30 type  1   force =     0.00000000    0.00000000    0.00000000
     atom   31 type  1   force =     0.00000000    0.00000000    0.00000000
     atom   32 type  1   force =     0.00000000    0.00000000    0.00000000
     atom   33 type  1   force =     0.00000000    0.00000000    0.00000000
     atom   34 type  1   force =     0.00000000    0.00000000    0.00000000
     atom   35 type  1   force =     0.00000000    0.00000000    0.00000000
     atom   36 type  1   force =     0.00000000    0.00000000    0.00000000
     atom   37 type  1   force =     0.00000000    0.00000000    0.00000000
     atom   38 type  1   force =     0.00000000    0.00000000    0.00000000
     atom   39 type  1   force =     0.00000000    0.00000000    0.00000000
     atom   40 type  1   force =     0.00000000    0.00000000    0.00000000
     atom   41 type  1   force =     0.00000000    0.00000000    0.00000000
     atom   42 type  1   force =     0.00000000    0.00000000    0.00000000
     atom   43 type  1   force =     0.00000000    0.00000000    0.00000000
     atom   44 type  1   force =     0.00000000    0.00000000    0.00000000
     atom   45 type  2   force =     0.01344584   -0.00589632    0.00823032
     atom   46 type  2   force =     0.01348608   -0.01347773    0.00270623
     atom   47 type  2   force =    -0.01191405   -0.00882448   -0.01700966
     atom   48 type  2   force =     0.00159315    0.01339502   -0.01545164
     atom   49 type  2   force =    -0.00970103   -0.00368453    0.01741907
     atom   50 type  2   force =    -0.00833025    0.01024057   -0.01395881
     atom   51 type  2   force =     0.00997165   -0.01707059    0.00202002
     atom   52 type  2   force =    -0.00957574    0.00611775    0.01598830
     atom   53 type  2   force =     0.01010426   -0.01173865   -0.01494152
     atom   54 type  2   force =    -0.00078296    0.02108176   -0.00339647
     atom   55 type  2   force =    -0.00006820   -0.01850795    0.00162892
     atom   56 type  2   force =     0.00774109    0.01419774    0.00305719
     atom   57 type  2   force =     0.01624625    0.00991905   -0.01151640
     atom   58 type  2   force =    -0.00364790    0.01182847   -0.01226163
     atom   59 type  2   force =     0.00122683    0.01258714    0.01421576
     atom   60 type  2   force =    -0.01050127    0.00018726    0.01228915
     atom   61 type  2   force =    -0.00696311   -0.01648265    0.00567061
     atom   62 type  2   force =     0.01893401   -0.00349682   -0.00651053
     atom   63 type  2   force =    -0.00692586    0.01501086   -0.00877068
     atom   64 type  2   force =     0.00804897    0.01851369    0.01328481
     atom   65 type  2   force =    -0.00513595    0.00914302    0.01482758
     atom   66 type  2   force =    -0.00458168   -0.01336396   -0.01738688
     The Hubbard contrib.    to forces
     atom    1 type  1   force =     0.00000000    0.00000000    0.00000000
     atom    2 type  1   force =     0.00000000    0.00000000    0.00000000
     atom    3 type  1   force =     0.00000000    0.00000000    0.00000000
     atom    4 type  1   force =     0.00000000    0.00000000    0.00000000
     atom    5 type  1   force =     0.00000000    0.00000000    0.00000000
     atom    6 type  1   force =     0.00000000    0.00000000    0.00000000
     atom    7 type  1   force =     0.00000000    0.00000000    0.00000000
     atom    8 type  1   force =     0.00000000    0.00000000    0.00000000
     atom    9 type  1   force =     0.00000000    0.00000000    0.00000000
     atom   10 type  1   force =     0.00000000    0.00000000    0.00000000
     atom   11 type  1   force =     0.00000000    0.00000000    0.00000000
     atom   12 type  1   force =     0.00000000    0.00000000    0.00000000
     atom   13 type  1   force =     0.00000000    0.00000000    0.00000000
     atom   14 type  1   force =     0.00000000    0.00000000    0.00000000
     atom   15 type  1   force =     0.00000000    0.00000000    0.00000000
     atom   16 type  1   force =     0.00000000    0.00000000    0.00000000
     atom   17 type  1   force =     0.00000000    0.00000000    0.00000000
     atom   18 type  1   force =     0.00000000    0.00000000    0.00000000
     atom   19 type  1   force =     0.00000000    0.00000000    0.00000000
     atom   20 type  1   force =     0.00000000    0.00000000    0.00000000
     atom   21 type  1   force =     0.00000000    0.00000000    0.00000000
     atom   22 type  1   force =     0.00000000    0.00000000    0.00000000
     atom   23 type  1   force =     0.00000000    0.00000000    0.00000000
     atom   24 type  1   force =     0.00000000    0.00000000    0.00000000
     atom   25 type  1   force =     0.00000000    0.00000000    0.00000000
     atom   26 type  1   force =     0.00000000    0.00000000    0.00000000
     atom   27 type  1   force =     0.00000000    0.00000000    0.00000000
     atom   28 type  1   force =     0.00000000    0.00000000    0.00000000
     atom   29 type  1   force =     0.00000000    0.00000000    0.00000000
     atom   30 type  1   force =     0.00000000    0.00000000    0.00000000
     atom   31 type  1   force =     0.00000000    0.00000000    0.00000000
     atom   32 type  1   force =     0.00000000    0.00000000    0.00000000
     atom   33 type  1   force =     0.00000000    0.00000000    0.00000000
     atom   34 type  1   force =     0.00000000    0.00000000    0.00000000
     atom   35 type  1   force =     0.00000000    0.00000000    0.00000000
     atom   36 type  1   force =     0.00000000    0.00000000    0.00000000
     atom   37 type  1   force =     0.00000000    0.00000000    0.00000000
     atom   38 type  1   force =     0.00000000    0.00000000    0.00000000
     atom   39 type  1   force =     0.00000000    0.00000000    0.00000000
     atom   40 type  1   force =     0.00000000    0.00000000    0.00000000
     atom   41 type  1   force =     0.00000000    0.00000000    0.00000000
     atom   42 type  1   force =     0.00000000    0.00000000    0.00000000
     atom   43 type  1   force =     0.00000000    0.00000000    0.00000000
     atom   44 type  1   force =     0.00000000    0.00000000    0.00000000
     atom   45 type  2   force =     0.00000000    0.00000000    0.00000000
     atom   46 type  2   force =     0.00000000    0.00000000    0.00000000
     atom   47 type  2   force =     0.00000000    0.00000000    0.00000000
     atom   48 type  2   force =     0.00000000    0.00000000    0.00000000
     atom   49 type  2   force =     0.00000000    0.00000000    0.00000000
     atom   50 type  2   force =     0.00000000    0.00000000    0.00000000
     atom   51 type  2   force =     0.00000000    0.00000000    0.00000000
     atom   52 type  2   force =     0.00000000    0.00000000    0.00000000
     atom   53 type  2   force =     0.00000000    0.00000000    0.00000000
     atom   54 type  2   force =     0.00000000    0.00000000    0.00000000
     atom   55 type  2   force =     0.00000000    0.00000000    0.00000000
     atom   56 type  2   force =     0.00000000    0.00000000    0.00000000
     atom   57 type  2   force =     0.00000000    0.00000000    0.00000000
     atom   58 type  2   force =     0.00000000    0.00000000    0.00000000
     atom   59 type  2   force =     0.00000000    0.00000000    0.00000000
     atom   60 type  2   force =     0.00000000    0.00000000    0.00000000
     atom   61 type  2   force =     0.00000000    0.00000000    0.00000000
     atom   62 type  2   force =     0.00000000    0.00000000    0.00000000
     atom   63 type  2   force =     0.00000000    0.00000000    0.00000000
     atom   64 type  2   force =     0.00000000    0.00000000    0.00000000
     atom   65 type  2   force =     0.00000000    0.00000000    0.00000000
     atom   66 type  2   force =     0.00000000    0.00000000    0.00000000
     The SCF correction term to forces
     atom    1 type  1   force =    -0.00000772    0.00000825    0.00000293
     atom    2 type  1   force =    -0.00000644   -0.00000307   -0.00000440
     atom    3 type  1   force =    -0.00000020    0.00000776    0.00000689
     atom    4 type  1   force =    -0.00001264   -0.00000227   -0.00000618
     atom    5 type  1   force =     0.00000098    0.00000203    0.00000699
     atom    6 type  1   force =    -0.00000038    0.00000197    0.00000175
     atom    7 type  1   force =    -0.00000091   -0.00000078    0.00000064
     atom    8 type  1   force =    -0.00000385   -0.00000955    0.00000317
     atom    9 type  1   force =     0.00000858   -0.00000861   -0.00000591
     atom   10 type  1   force =    -0.00000032    0.00000650   -0.00000620
     atom   11 type  1   force =     0.00001093    0.00000798    0.00000543
     atom   12 type  1   force =    -0.00000400   -0.00000682    0.00000629
     atom   13 type  1   force =    -0.00001403    0.00000951    0.00000278
     atom   14 type  1   force =     0.00000397    0.00000882   -0.00000553
     atom   15 type  1   force =    -0.00000236   -0.00000184   -0.00000172
     atom   16 type  1   force =     0.00001108   -0.00000025   -0.00000365
     atom   17 type  1   force =    -0.00000298    0.00000184    0.00001443
     atom   18 type  1   force =    -0.00000442    0.00000638    0.00000112
     atom   19 type  1   force =     0.00000051    0.00000057    0.00000225
     atom   20 type  1   force =    -0.00000522   -0.00000791   -0.00000414
     atom   21 type  1   force =     0.00000572    0.00000005   -0.00000296
     atom   22 type  1   force =    -0.00000415    0.00000165   -0.00000398
     atom   23 type  1   force =    -0.00000659   -0.00000043   -0.00000088
     atom   24 type  1   force =     0.00000452   -0.00001138    0.00000135
     atom   25 type  1   force =    -0.00000778   -0.00000598   -0.00000224
     atom   26 type  1   force =     0.00000064    0.00000044    0.00000392
     atom   27 type  1   force =    -0.00000680   -0.00000081    0.00000868
     atom   28 type  1   force =     0.00000886   -0.00001452    0.00000928
     atom   29 type  1   force =     0.00000305   -0.00001274   -0.00000475
     atom   30 type  1   force =    -0.00000549   -0.00000234   -0.00000888
     atom   31 type  1   force =     0.00000561   -0.00000311   -0.00000717
     atom   32 type  1   force =     0.00000474    0.00000395   -0.00000297
     atom   33 type  1   force =     0.00000529    0.00001467    0.00000211
     atom   34 type  1   force =    -0.00000042    0.00000895   -0.00000110
     atom   35 type  1   force =    -0.00001200    0.00000406   -0.00000506
     atom   36 type  1   force =    -0.00000217    0.00000477    0.00000705
     atom   37 type  1   force =     0.00000614   -0.00000171    0.00000547
     atom   38 type  1   force =     0.00000121   -0.00000533   -0.00000325
     atom   39 type  1   force =    -0.00000618   -0.00000660   -0.00000318
     atom   40 type  1   force =    -0.00000021   -0.00000887   -0.00000779
     atom   41 type  1   force =    -0.00001201   -0.00000012   -0.00002389
     atom   42 type  1   force =     0.00001313   -0.00001004    0.00000177
     atom   43 type  1   force =     0.00001193    0.00000546    0.00000833
     atom   44 type  1   force =    -0.00000794    0.00000281    0.00000142
     atom   45 type  2   force =     0.00000050   -0.00004060    0.00001744
     atom   46 type  2   force =    -0.00000268   -0.00000115    0.00002513
     atom   47 type  2   force =     0.00002235    0.00001841    0.00000399
     atom   48 type  2   force =     0.00002494   -0.00001159    0.00002227
     atom   49 type  2   force =     0.00002579   -0.00005219   -0.00000843
     atom   50 type  2   force =     0.00003861    0.00003206    0.00001060
     atom   51 type  2   force =    -0.00001426    0.00003425   -0.00001871
     atom   52 type  2   force =     0.00002529   -0.00000851   -0.00000933
     atom   53 type  2   force =    -0.00002229    0.00002916    0.00002010
     atom   54 type  2   force =     0.00001000   -0.00001282    0.00001490
     atom   55 type  2   force =     0.00000277   -0.00002718   -0.00003608
     atom   56 type  2   force =     0.00000504    0.00000976   -0.00000065
     atom   57 type  2   force =     0.00000780   -0.00001024    0.00002562
     atom   58 type  2   force =    -0.00005077   -0.00001483    0.00005480
     atom   59 type  2   force =    -0.00000536   -0.00002008   -0.00003927
     atom   60 type  2   force =     0.00003657    0.00006589   -0.00001675
     atom   61 type  2   force =     0.00000312    0.00005262   -0.00003220
     atom   62 type  2   force =    -0.00004421    0.00005203    0.00000665
     atom   63 type  2   force =     0.00004661   -0.00001735   -0.00001163
     atom   64 type  2   force =    -0.00004980   -0.00008683   -0.00006711
     atom   65 type  2   force =    -0.00002064   -0.00000603    0.00000108
     atom   66 type  2   force =    -0.00004270    0.00004292    0.00001252

     Total force =     0.533012     Total SCF correction =     0.000261


     Computing stress (Cartesian axis) and pressure


     negative rho (up, down):  5.020E-01 0.000E+00
          total   stress  (Ry/bohr**3)                   (kbar)     P=       -2.95
  -0.00002078  -0.00000054  -0.00000016           -3.06       -0.08       -0.02
  -0.00000054  -0.00001965  -0.00000049           -0.08       -2.89       -0.07
  -0.00000016  -0.00000049  -0.00001966           -0.02       -0.07       -2.89


     init_run     :      8.60s CPU      9.13s WALL (       1 calls)
     electrons    :     90.56s CPU     96.58s WALL (       1 calls)
     forces       :      5.64s CPU      5.96s WALL (       1 calls)
     stress       :     17.23s CPU     17.73s WALL (       1 calls)

     Called by init_run:
     wfcinit      :      3.10s CPU      3.28s WALL (       1 calls)
     potinit      :      1.47s CPU      1.56s WALL (       1 calls)
     hinit0       :      1.31s CPU      1.39s WALL (       1 calls)

     Called by electrons:
     c_bands      :     60.09s CPU     63.12s WALL (      11 calls)
     sum_band     :     17.49s CPU     18.83s WALL (      11 calls)
     v_of_rho     :      7.58s CPU      8.21s WALL (      12 calls)
     newd         :      3.77s CPU      4.81s WALL (      12 calls)
     PAW_pot      :      1.09s CPU      1.09s WALL (      12 calls)
     mix_rho      :      1.41s CPU      1.51s WALL (      11 calls)

     Called by c_bands:
     init_us_2    :      0.91s CPU      0.93s WALL (      23 calls)
     init_us_2:cp :      0.90s CPU      0.93s WALL (      23 calls)
     regterg      :     59.02s CPU     62.06s WALL (      11 calls)

     Called by *egterg:
     rdiaghg      :      0.23s CPU      0.23s WALL (      35 calls)
     h_psi        :     53.08s CPU     55.63s WALL (      36 calls)
     s_psi        :      1.52s CPU      1.53s WALL (      36 calls)
     g_psi        :      0.18s CPU      0.18s WALL (      24 calls)

     Called by h_psi:
     h_psi:calbec :      1.29s CPU      1.30s WALL (      36 calls)
     vloc_psi     :     49.78s CPU     52.30s WALL (      36 calls)
     add_vuspsi   :      1.50s CPU      1.51s WALL (      36 calls)

     General routines
     calbec       :      1.92s CPU      1.93s WALL (      52 calls)
     fft          :      4.41s CPU      5.03s WALL (     128 calls)
     ffts         :      0.30s CPU      0.34s WALL (      11 calls)
     fftw         :     41.98s CPU     44.81s WALL (    3164 calls)

     Parallel routines

     PWSCF        :   2m 2.25s CPU   2m 9.69s WALL


   This run was terminated on:   8:29:21  27Mar2024            

=------------------------------------------------------------------------------=
   JOB DONE.
=------------------------------------------------------------------------------=
