
     Program PWSCF v.7.2 starts on 27Mar2024 at 13:31:47 

     This program is part of the open-source Quantum ESPRESSO suite
     for quantum simulation of materials; please cite
         "P. Giannozzi et al., J. Phys.:Condens. Matter 21 395502 (2009);
         "P. Giannozzi et al., J. Phys.:Condens. Matter 29 465901 (2017);
         "P. Giannozzi et al., J. Chem. Phys. 152 154105 (2020);
          URL http://www.quantum-espresso.org", 
     in publications or presentations arising from this work. More details at
     http://www.quantum-espresso.org/quote

     Parallel version (MPI), running on    32 processors

     MPI processes distributed on     1 nodes
     170021 MiB available memory on the printing compute node when the environment starts

     Reading input from pw-wt-322.in
Warning: card &CELL ignored
Warning: card / ignored

     Current dimensions of program PWSCF are:
     Max number of different atomic species (ntypx) = 10
     Max number of k-points (npk) =  40000
     Max angular momentum in pseudopotentials (lmaxx) =  4
     file O.pbe-n-kjpaw_psl.0.1.UPF: wavefunction(s)  2P renormalized

     IMPORTANT: XC functional enforced from input :
     Exchange-correlation= PBE
                           (   1   4   3   4   0   0   0)
     Any further DFT definition will be discarded
     Please, verify this is what you really want


     gamma-point specific algorithms are used

     R & G space division:  proc/nbgrp/npool/nimage =      32
     Subspace diagonalization in iterative solution of the eigenvalue problem:
     a serial algorithm will be used


     Parallelization info
     --------------------
     sticks:   dense  smooth     PW     G-vecs:    dense   smooth      PW
     Min        1707    1707    426               301015   301015   37634
     Max        1710    1710    428               301034   301034   37648
     Sum       54693   54693  13673              9632757  9632757 1204469

     Using Slab Decomposition



     bravais-lattice index     =            0
     lattice parameter (alat)  =      75.7119  a.u.
     unit-cell volume          =  434002.3113 (a.u.)^3
     number of atoms/cell      =           66
     number of atomic types    =            2
     number of electrons       =       176.00
     number of Kohn-Sham states=           88
     kinetic-energy cutoff     =      30.0000  Ry
     charge density cutoff     =     120.0000  Ry
     scf convergence threshold =      1.0E-06
     mixing beta               =       0.5000
     number of iterations used =            8  plain     mixing
     Exchange-correlation= PBE
                           (   1   4   3   4   0   0   0)

     celldm(1)=  75.711877  celldm(2)=   0.000000  celldm(3)=   0.000000
     celldm(4)=   0.000000  celldm(5)=   0.000000  celldm(6)=   0.000000

     crystal axes: (cart. coord. in units of alat)
               a(1) = (   1.000000   0.000000   0.000000 )  
               a(2) = (   0.000000   1.000000   0.000000 )  
               a(3) = (   0.000000   0.000000   1.000000 )  

     reciprocal axes: (cart. coord. in units 2 pi/alat)
               b(1) = (  1.000000  0.000000  0.000000 )  
               b(2) = (  0.000000  1.000000  0.000000 )  
               b(3) = (  0.000000  0.000000  1.000000 )  


     PseudoPot. # 1 for H  read from file:
     /share/pfaendtnergroup/rverma7/QE_PP/H.pbe-rrkjus_psl.1.0.0.UPF
     MD5 check sum: f52b6d4d1c606e5624b1dc7b2218f220
     Pseudo is Ultrasoft, Zval =  1.0
     Generated using "atomic" code by A. Dal Corso  v.5.1
     Using radial grid of  929 points,  2 beta functions with: 
                l(1) =   0
                l(2) =   0
     Q(r) pseudized with 0 coefficients 


     PseudoPot. # 2 for O  read from file:
     /share/pfaendtnergroup/rverma7/QE_PP/O.pbe-n-kjpaw_psl.0.1.UPF
     MD5 check sum: 0234752ac141de4415c5fc33072bef88
     Pseudo is Projector augmented-wave + core cor, Zval =  6.0
     Generated using "atomic" code by A. Dal Corso  v.5.0.99 svn rev. 10869
     Shape of augmentation charge: BESSEL
     Using radial grid of 1095 points,  4 beta functions with: 
                l(1) =   0
                l(2) =   0
                l(3) =   1
                l(4) =   1
     Q(r) pseudized with 0 coefficients 


     atomic species   valence    mass     pseudopotential
        H              1.00     1.00800     H ( 1.00)
        O              6.00    15.99900     O ( 1.00)

     No symmetry found



   Cartesian axes

     site n.     atom                  positions (alat units)
         1           H   tau(   1) = (   0.1935605   0.3345064   0.4982154  )
         2           H   tau(   2) = (   0.1984775   0.3144390   0.4615250  )
         3           H   tau(   3) = (   0.3090478   0.2879321   0.3742668  )
         4           H   tau(   4) = (   0.2882815   0.2890054   0.3386747  )
         5           H   tau(   5) = (   0.2664670   0.1870211   0.3927368  )
         6           H   tau(   6) = (   0.3083489   0.1835517   0.3892175  )
         7           H   tau(   7) = (   0.2563335   0.2669163   0.2824910  )
         8           H   tau(   8) = (   0.2745788   0.2452764   0.3096718  )
         9           H   tau(   9) = (   0.3086235   0.2585299   0.4846624  )
        10           H   tau(  10) = (   0.3184325   0.2911020   0.4670161  )
        11           H   tau(  11) = (   0.3527767   0.1457382   0.4464745  )
        12           H   tau(  12) = (   0.3591664   0.1840509   0.4436541  )
        13           H   tau(  13) = (   0.2147011   0.2704355   0.4765756  )
        14           H   tau(  14) = (   0.1977786   0.2373643   0.4630975  )
        15           H   tau(  15) = (   0.3469612   0.1629352   0.3567453  )
        16           H   tau(  16) = (   0.3663796   0.1745913   0.3920879  )
        17           H   tau(  17) = (   0.2662923   0.3205791   0.3833521  )
        18           H   tau(  18) = (   0.2528142   0.3590665   0.3857232  )
        19           H   tau(  19) = (   0.2919256   0.1949582   0.3400225  )
        20           H   tau(  20) = (   0.3194060   0.2255335   0.3338575  )
        21           H   tau(  21) = (   0.2686385   0.3304880   0.4409584  )
        22           H   tau(  22) = (   0.2577561   0.3202047   0.4771496  )
        23           H   tau(  23) = (   0.2252090   0.2426557   0.3820542  )
        24           H   tau(  24) = (   0.2378635   0.2691127   0.3517035  )
        25           H   tau(  25) = (   0.3592912   0.2211656   0.3592662  )
        26           H   tau(  26) = (   0.3680519   0.2604268   0.3426931  )
        27           H   tau(  27) = (   0.3562461   0.2399850   0.4717085  )
        28           H   tau(  28) = (   0.3914140   0.2214901   0.4725321  )
        29           H   tau(  29) = (   0.3031075   0.1064770   0.3429178  )
        30           H   tau(  30) = (   0.2980656   0.1413204   0.3613129  )
        31           H   tau(  31) = (   0.2151005   0.3207288   0.4144016  )
        32           H   tau(  32) = (   0.1937102   0.2925496   0.3981530  )
        33           H   tau(  33) = (   0.3117434   0.2507176   0.4308000  )
        34           H   tau(  34) = (   0.3274928   0.2393111   0.3929614  )
        35           H   tau(  35) = (   0.3516536   0.1806315   0.2671409  )
        36           H   tau(  36) = (   0.3261201   0.2013229   0.2888556  )
        37           H   tau(  37) = (   0.2694372   0.2426307   0.5349557  )
        38           H   tau(  38) = (   0.2618245   0.2398852   0.4949457  )
        39           H   tau(  39) = (   0.3989018   0.2712342   0.3036316  )
        40           H   tau(  40) = (   0.4068389   0.3079745   0.3212530  )
        41           H   tau(  41) = (   0.2667665   0.2284787   0.4135280  )
        42           H   tau(  42) = (   0.2328965   0.2276800   0.4385873  )
        43           H   tau(  43) = (   0.3764383   0.2299513   0.2764757  )
        44           H   tau(  44) = (   0.4068888   0.2331711   0.2480469  )
        45           O   tau(  45) = (   0.2077624   0.3160364   0.4862848  )
        46           O   tau(  46) = (   0.2895295   0.3004368   0.3627356  )
        47           O   tau(  47) = (   0.2856358   0.1750156   0.3802321  )
        48           O   tau(  48) = (   0.2643954   0.2668414   0.3067016  )
        49           O   tau(  49) = (   0.3253214   0.2676650   0.4671908  )
        50           O   tau(  50) = (   0.3617372   0.1626108   0.4311993  )
        51           O   tau(  51) = (   0.2191689   0.2457007   0.4718582  )
        52           O   tau(  52) = (   0.3622613   0.1800324   0.3666542  )
        53           O   tau(  53) = (   0.2572070   0.3393486   0.4001997  )
        54           O   tau(  54) = (   0.3006614   0.2112317   0.3227256  )
        55           O   tau(  55) = (   0.2786722   0.3217272   0.4635717  )
        56           O   tau(  56) = (   0.2173219   0.2593785   0.3640085  )
        57           O   tau(  57) = (   0.3507301   0.2459503   0.3548234  )
        58           O   tau(  58) = (   0.3681518   0.2183701   0.4714339  )
        59           O   tau(  59) = (   0.3162860   0.1243979   0.3540247  )
        60           O   tau(  60) = (   0.1958567   0.3062024   0.4188194  )
        61           O   tau(  61) = (   0.3066018   0.2405841   0.4082616  )
        62           O   tau(  62) = (   0.3456883   0.2047673   0.2725821  )
        63           O   tau(  63) = (   0.2807188   0.2437789   0.5130163  )
        64           O   tau(  64) = (   0.3912392   0.2882815   0.3213528  )
        65           O   tau(  65) = (   0.2417072   0.2203919   0.4148009  )
        66           O   tau(  66) = (   0.3988019   0.2411332   0.2706851  )

     number of k points=     1
                       cart. coord. in units 2pi/alat
        k(    1) = (   0.0000000   0.0000000   0.0000000), wk =   2.0000000

     Dense  grid:  4816379 G-vectors     FFT dimensions: ( 270, 270, 270)

     Estimated max dynamical RAM per process >     612.29 MB

     Estimated total dynamical RAM >      19.13 GB

     Check: negative core charge=   -0.000006

     Initial potential from superposition of free atoms

     starting charge     175.9995, renormalised to     176.0000

     negative rho (up, down):  3.708E-01 0.000E+00
     Starting wfcs are  132 randomized atomic wfcs
     Checking if some PAW data can be deallocated... 

     total cpu time spent up to now is        8.7 secs

     Self-consistent Calculation

     iteration #  1     ecut=    30.00 Ry     beta= 0.50
     Davidson diagonalization with overlap
     ethr =  1.00E-02,  avg # of iterations =  2.0

     negative rho (up, down):  4.382E-01 0.000E+00

     total cpu time spent up to now is       18.0 secs

     total energy              =    -965.80513596 Ry
     estimated scf accuracy    <       6.84752555 Ry

     iteration #  2     ecut=    30.00 Ry     beta= 0.50
     Davidson diagonalization with overlap
     ethr =  3.89E-03,  avg # of iterations =  2.0

     negative rho (up, down):  4.587E-01 0.000E+00

     total cpu time spent up to now is       27.4 secs

     total energy              =    -967.72980859 Ry
     estimated scf accuracy    <       1.00042556 Ry

     iteration #  3     ecut=    30.00 Ry     beta= 0.50
     Davidson diagonalization with overlap
     ethr =  5.68E-04,  avg # of iterations =  2.0

     negative rho (up, down):  5.045E-01 0.000E+00

     total cpu time spent up to now is       35.8 secs

     total energy              =    -967.78284856 Ry
     estimated scf accuracy    <       0.12934902 Ry

     iteration #  4     ecut=    30.00 Ry     beta= 0.50
     Davidson diagonalization with overlap
     ethr =  7.35E-05,  avg # of iterations =  3.0

     negative rho (up, down):  5.043E-01 0.000E+00

     total cpu time spent up to now is       45.7 secs

     total energy              =    -967.80637449 Ry
     estimated scf accuracy    <       0.03964741 Ry

     iteration #  5     ecut=    30.00 Ry     beta= 0.50
     Davidson diagonalization with overlap
     ethr =  2.25E-05,  avg # of iterations =  2.0

     negative rho (up, down):  5.033E-01 0.000E+00

     total cpu time spent up to now is       53.4 secs

     total energy              =    -967.80691135 Ry
     estimated scf accuracy    <       0.00746909 Ry

     iteration #  6     ecut=    30.00 Ry     beta= 0.50
     Davidson diagonalization with overlap
     ethr =  4.24E-06,  avg # of iterations =  2.0

     negative rho (up, down):  5.025E-01 0.000E+00

     total cpu time spent up to now is       61.6 secs

     total energy              =    -967.80702204 Ry
     estimated scf accuracy    <       0.00161278 Ry

     iteration #  7     ecut=    30.00 Ry     beta= 0.50
     Davidson diagonalization with overlap
     ethr =  9.16E-07,  avg # of iterations =  2.0

     negative rho (up, down):  5.022E-01 0.000E+00

     total cpu time spent up to now is       70.6 secs

     total energy              =    -967.80728042 Ry
     estimated scf accuracy    <       0.00008595 Ry

     iteration #  8     ecut=    30.00 Ry     beta= 0.50
     Davidson diagonalization with overlap
     ethr =  4.88E-08,  avg # of iterations =  3.0

     negative rho (up, down):  5.022E-01 0.000E+00

     total cpu time spent up to now is       80.2 secs

     total energy              =    -967.80731077 Ry
     estimated scf accuracy    <       0.00001030 Ry

     iteration #  9     ecut=    30.00 Ry     beta= 0.50
     Davidson diagonalization with overlap
     ethr =  5.85E-09,  avg # of iterations =  2.0

     negative rho (up, down):  5.023E-01 0.000E+00

     total cpu time spent up to now is       88.3 secs

     total energy              =    -967.80730980 Ry
     estimated scf accuracy    <       0.00000551 Ry

     iteration # 10     ecut=    30.00 Ry     beta= 0.50
     Davidson diagonalization with overlap
     ethr =  3.13E-09,  avg # of iterations =  2.0

     negative rho (up, down):  5.023E-01 0.000E+00

     total cpu time spent up to now is       96.6 secs

     End of self-consistent calculation

          k = 0.0000 0.0000 0.0000 (602235 PWs)   bands (ev):

   -26.3328 -25.7189 -25.4993 -25.4465 -25.3281 -25.3041 -25.1984 -25.1295
   -25.1027 -24.9600 -24.9243 -24.7502 -24.7412 -24.6387 -24.6019 -24.4092
   -24.3382 -24.2482 -24.1825 -24.1497 -23.9442 -23.2492 -14.2072 -13.7439
   -13.5806 -13.5461 -13.4858 -13.2653 -13.1836 -13.1470 -13.0199 -12.9068
   -12.7533 -12.6666 -12.5976 -12.5238 -12.4157 -12.3683 -12.2947 -12.2643
   -12.2460 -12.1262 -11.7601 -11.5322 -10.9311 -10.7102 -10.5067 -10.4116
   -10.2704 -10.1451  -9.9584  -9.8025  -9.6942  -9.5603  -9.4677  -9.2248
    -9.1612  -9.0973  -8.9693  -8.7011  -8.6618  -8.5289  -8.3424  -8.2636
    -8.2174  -8.0442  -7.7767  -7.6999  -7.6717  -7.6330  -7.5266  -7.4488
    -7.3734  -7.3394  -7.3059  -7.2696  -7.2422  -7.2082  -7.0726  -7.0507
    -7.0065  -6.9938  -6.8781  -6.8034  -6.7046  -6.5995  -6.3725  -5.8205

     highest occupied level (ev):    -5.8205

!    total energy              =    -967.80731008 Ry
     estimated scf accuracy    <       0.00000052 Ry

     The total energy is the sum of the following terms:
     one-electron contribution =   -5846.38813059 Ry
     hartree contribution      =    2958.42242749 Ry
     xc contribution           =    -193.61573628 Ry
     ewald contribution        =    2323.07748631 Ry
     one-center paw contrib.   =    -209.30335703 Ry

     convergence has been achieved in  10 iterations

     negative rho (up, down):  5.023E-01 0.000E+00

     Forces acting on atoms (cartesian axes, Ry/au):

     atom    1 type  1   force =     0.05248545   -0.07678909   -0.05041962
     atom    2 type  1   force =     0.01728733    0.00890167    0.06046279
     atom    3 type  1   force =    -0.06704136    0.03382643   -0.03120345
     atom    4 type  1   force =    -0.00906536    0.04598156    0.08043420
     atom    5 type  1   force =     0.04435349   -0.02300030   -0.01577842
     atom    6 type  1   force =    -0.07663528   -0.01646738   -0.01096808
     atom    7 type  1   force =     0.02336925    0.00581959    0.06901619
     atom    8 type  1   force =     0.02765000   -0.06562686    0.01030042
     atom    9 type  1   force =     0.03859022    0.01628174   -0.02028672
     atom   10 type  1   force =    -0.01089844    0.02798039   -0.00892313
     atom   11 type  1   force =     0.00136113   -0.00171197   -0.01130139
     atom   12 type  1   force =     0.00906507    0.00558456    0.01277282
     atom   13 type  1   force =     0.00755614   -0.03842077   -0.00668590
     atom   14 type  1   force =    -0.00318699    0.00543427    0.01422403
     atom   15 type  1   force =     0.02388641    0.00167722    0.01835129
     atom   16 type  1   force =    -0.02527233   -0.01438226   -0.07354449
     atom   17 type  1   force =    -0.00561994    0.04315223    0.03443798
     atom   18 type  1   force =     0.00909869   -0.02224425    0.02193252
     atom   19 type  1   force =     0.01301854    0.02588185   -0.00728376
     atom   20 type  1   force =    -0.03359192   -0.02502459   -0.01088311
     atom   21 type  1   force =     0.04263832   -0.01999068    0.05245205
     atom   22 type  1   force =     0.02266524    0.00101789   -0.00630461
     atom   23 type  1   force =     0.00249780    0.04064502   -0.03534792
     atom   24 type  1   force =    -0.06250937   -0.04345120    0.04320349
     atom   25 type  1   force =    -0.00279113    0.05293044   -0.02098510
     atom   26 type  1   force =    -0.01772269   -0.01629476    0.02793996
     atom   27 type  1   force =     0.00497071    0.01698183   -0.00290980
     atom   28 type  1   force =     0.06642695    0.01962946    0.00429812
     atom   29 type  1   force =     0.02280840    0.02054703    0.00977463
     atom   30 type  1   force =     0.03477705   -0.04035020   -0.00367011
     atom   31 type  1   force =     0.02170499    0.00660757   -0.01964399
     atom   32 type  1   force =     0.01341874   -0.00467888    0.00822553
     atom   33 type  1   force =     0.02408336   -0.00044556   -0.01691292
     atom   34 type  1   force =    -0.04958650    0.02235579    0.04507544
     atom   35 type  1   force =    -0.00561330    0.06288803    0.01069610
     atom   36 type  1   force =     0.02255908    0.01885434   -0.00959279
     atom   37 type  1   force =     0.00743666    0.00312518   -0.02199072
     atom   38 type  1   force =     0.05399319    0.01166867    0.08119587
     atom   39 type  1   force =    -0.00060091    0.04560346    0.01383714
     atom   40 type  1   force =    -0.02803466   -0.04870767   -0.00261514
     atom   41 type  1   force =    -0.05896825   -0.00553294    0.00431138
     atom   42 type  1   force =     0.04694467   -0.00894662   -0.07704235
     atom   43 type  1   force =     0.03292062   -0.00569772   -0.03567106
     atom   44 type  1   force =    -0.03202751    0.01820721    0.06136759
     atom   45 type  2   force =    -0.07104190    0.05413344   -0.02732858
     atom   46 type  2   force =     0.07416908   -0.08545887   -0.07053085
     atom   47 type  2   force =     0.01313065    0.04963856    0.03646902
     atom   48 type  2   force =    -0.04253569    0.06019282   -0.07316871
     atom   49 type  2   force =    -0.04323455   -0.03028720    0.04176397
     atom   50 type  2   force =    -0.00280313    0.00863509    0.01250072
     atom   51 type  2   force =    -0.02012770    0.03588175    0.02267717
     atom   52 type  2   force =     0.00399322    0.00497583    0.04694122
     atom   53 type  2   force =    -0.01541497   -0.01277506   -0.04133944
     atom   54 type  2   force =     0.02033821    0.01188482    0.01135071
     atom   55 type  2   force =    -0.05258829    0.02094366   -0.04522410
     atom   56 type  2   force =     0.04190229    0.00891539   -0.00368200
     atom   57 type  2   force =     0.01743139   -0.05530697    0.00153605
     atom   58 type  2   force =    -0.06282086   -0.04648282   -0.00599618
     atom   59 type  2   force =    -0.05211097    0.00713890   -0.00832446
     atom   60 type  2   force =    -0.02115827    0.00237542    0.01176267
     atom   61 type  2   force =     0.03114566   -0.01021742   -0.02495308
     atom   62 type  2   force =    -0.03478091   -0.08836984    0.00348660
     atom   63 type  2   force =    -0.07420284   -0.02049086   -0.06328414
     atom   64 type  2   force =     0.03250088   -0.00621995   -0.02906702
     atom   65 type  2   force =     0.04524286    0.01025786    0.04034490
     atom   66 type  2   force =     0.01456429   -0.00318424   -0.02027941
     The non-local contrib.  to forces
     atom    1 type  1   force =     0.04416932   -0.05962551   -0.04048934
     atom    2 type  1   force =     0.02629350    0.00682166    0.07480303
     atom    3 type  1   force =    -0.06719583    0.04256615   -0.04103927
     atom    4 type  1   force =     0.00471547    0.03183004    0.07131556
     atom    5 type  1   force =     0.06774650   -0.03944887   -0.04144854
     atom    6 type  1   force =    -0.07984937   -0.02800288   -0.02998266
     atom    7 type  1   force =     0.03060763   -0.00225197    0.08785585
     atom    8 type  1   force =    -0.04979103    0.10417035   -0.01741717
     atom    9 type  1   force =     0.05577072    0.03196782   -0.06001200
     atom   10 type  1   force =     0.03185982   -0.10695494    0.00188304
     atom   11 type  1   force =     0.03908480    0.07685198   -0.06684823
     atom   12 type  1   force =     0.00906571   -0.08879580   -0.04924400
     atom   13 type  1   force =     0.01391656   -0.09016656   -0.01874391
     atom   14 type  1   force =     0.09326228    0.03850208    0.03883778
     atom   15 type  1   force =     0.06072205    0.06906977    0.04309792
     atom   16 type  1   force =    -0.01506894    0.01504425   -0.07742626
     atom   17 type  1   force =    -0.02223015    0.04945630    0.04145533
     atom   18 type  1   force =     0.01861018   -0.08217671    0.05802496
     atom   19 type  1   force =     0.03497430    0.06197223   -0.06325319
     atom   20 type  1   force =    -0.05961167   -0.04700051   -0.03261256
     atom   21 type  1   force =     0.02938216   -0.02788172    0.07165914
     atom   22 type  1   force =     0.08376637    0.00618009   -0.05596067
     atom   23 type  1   force =    -0.02273847    0.05677020   -0.06097993
     atom   24 type  1   force =    -0.06806727   -0.03482102    0.04500825
     atom   25 type  1   force =    -0.02268929    0.07104763   -0.01340302
     atom   26 type  1   force =    -0.05846902   -0.05300568    0.04173986
     atom   27 type  1   force =     0.05358915   -0.08959832   -0.00117566
     atom   28 type  1   force =    -0.12487778   -0.01279707   -0.00612764
     atom   29 type  1   force =     0.05198404    0.07487295    0.04537297
     atom   30 type  1   force =     0.05856406   -0.05650756   -0.02529445
     atom   31 type  1   force =    -0.08520783   -0.06508798    0.01796148
     atom   32 type  1   force =     0.00998428    0.05775028    0.08577093
     atom   33 type  1   force =    -0.01613433   -0.03786804   -0.08474724
     atom   34 type  1   force =    -0.06782177    0.00453707    0.05314212
     atom   35 type  1   force =    -0.02286534    0.08860516    0.02135198
     atom   36 type  1   force =     0.06855405    0.01006567   -0.05637181
     atom   37 type  1   force =     0.04549490    0.00480385   -0.09501551
     atom   38 type  1   force =     0.05704751    0.01205124    0.05831753
     atom   39 type  1   force =    -0.02392598    0.06102792    0.06123806
     atom   40 type  1   force =    -0.05904171   -0.07892883   -0.00137641
     atom   41 type  1   force =    -0.07557603   -0.02383399    0.00628886
     atom   42 type  1   force =     0.02696469   -0.02090096   -0.06892339
     atom   43 type  1   force =     0.07643453    0.03624937   -0.02286207
     atom   44 type  1   force =    -0.03308128    0.02809587    0.08475856
     atom   45 type  2   force =    -1.57049442    1.09739835   -0.68184486
     atom   46 type  2   force =     1.02241701   -1.41563598   -0.54669601
     atom   47 type  2   force =     0.31120829    1.29123265    1.20385222
     atom   48 type  2   force =     0.23160589   -1.37174915   -1.48764704
     atom   49 type  2   force =    -1.40533521    0.88689839    0.93631325
     atom   50 type  2   force =    -0.90394389    0.19062480    1.78263567
     atom   51 type  2   force =    -1.75433015    0.89671004   -0.46333757
     atom   52 type  2   force =    -0.99296726   -1.23576906    0.86641694
     atom   53 type  2   force =    -0.00394703    0.44098988   -1.76653031
     atom   54 type  2   force =     0.55775911   -0.19418543    1.63203449
     atom   55 type  2   force =    -2.01017950    0.31520708   -0.41183008
     atom   56 type  2   force =     1.92885544   -0.29136979    0.42386943
     atom   57 type  2   force =     1.41111474   -0.61351117   -0.49486898
     atom   58 type  2   force =     1.09727463    1.64991940   -0.03770473
     atom   59 type  2   force =    -2.09879302   -0.21229447   -0.49739160
     atom   60 type  2   force =     1.14447606    0.07422335   -1.47360233
     atom   61 type  2   force =     1.55007478    0.41786353    0.48933512
     atom   62 type  2   force =    -0.60935873   -1.86552712    0.67952705
     atom   63 type  2   force =    -2.05531587   -0.26567491    0.38089318
     atom   64 type  2   force =     1.68085256    0.23548412   -1.01792403
     atom   65 type  2   force =     0.95873886    0.81372221    1.24471433
     atom   66 type  2   force =    -0.76294624   -1.15489922   -1.23409040
     The ionic contribution  to forces
     atom    1 type  1   force =    -2.87919795    3.35522064    2.84842454
     atom    2 type  1   force =    -2.84363209    1.22344761   -0.92973640
     atom    3 type  1   force =     2.95997828    0.65868409    0.88495757
     atom    4 type  1   force =     0.10505541    0.91838877   -3.60899784
     atom    5 type  1   force =    -3.43154866   -1.11798751    1.34991790
     atom    6 type  1   force =     2.15182972   -0.87781405    1.59907362
     atom    7 type  1   force =    -2.10689379    0.68220084   -5.21969870
     atom    8 type  1   force =     0.03697559   -2.52788853   -1.92798267
     atom    9 type  1   force =    -0.68210975   -0.61290134    3.57493503
     atom   10 type  1   force =     0.76413909    4.50497563    1.36177775
     atom   11 type  1   force =    -0.52168930   -4.41913726    3.36805116
     atom   12 type  1   force =     0.84526724    1.00197707    2.53975583
     atom   13 type  1   force =    -2.02186004    2.27708451    2.13659629
     atom   14 type  1   force =    -5.16650751   -2.16708218    0.03245538
     atom   15 type  1   force =    -0.18738877   -3.81100605   -2.03495088
     atom   16 type  1   force =     2.56314931   -1.74979902    2.19311569
     atom   17 type  1   force =    -0.00547925    0.80143534   -1.69759259
     atom   18 type  1   force =    -1.05007767    5.18482494   -2.46800245
     atom   19 type  1   force =    -2.07900359   -3.04836485    0.03370262
     atom   20 type  1   force =     1.71485971    1.14533888   -0.59774510
     atom   21 type  1   force =    -0.54782754    2.96754764   -1.03319394
     atom   22 type  1   force =    -2.27446584    1.53476740    3.42715475
     atom   23 type  1   force =    -1.60649332   -2.12425997    0.77525245
     atom   24 type  1   force =     0.16661449    1.56052238   -2.53796600
     atom   25 type  1   force =     2.93957296   -1.94913062    0.05560878
     atom   26 type  1   force =     3.26423480    2.19446880   -1.36777244
     atom   27 type  1   force =     0.71462371    2.42121834    1.76848701
     atom   28 type  1   force =     5.71965108    0.32198851    1.54934200
     atom   29 type  1   force =    -1.97902243   -4.68933790   -2.20099822
     atom   30 type  1   force =    -2.50200219   -1.29696204   -0.01638927
     atom   31 type  1   force =     0.46844426    3.48063323   -0.64679742
     atom   32 type  1   force =    -2.92863847   -0.90651920   -2.96915691
     atom   33 type  1   force =     1.08812548    1.22003978    2.95775703
     atom   34 type  1   force =     3.11483904    0.14999805   -0.75728874
     atom   35 type  1   force =     1.29893129   -4.32590036   -2.64894377
     atom   36 type  1   force =    -1.90320424   -1.48949776   -0.87858539
     atom   37 type  1   force =    -1.66329675   -0.53216686    5.37688384
     atom   38 type  1   force =    -2.11114370   -1.30013939    0.40375609
     atom   39 type  1   force =     2.62486240   -0.57180872   -2.54423003
     atom   40 type  1   force =     3.48529420    4.04261944   -0.43196199
     atom   41 type  1   force =     1.01197198   -0.09297113    0.60435887
     atom   42 type  1   force =    -2.20692251   -0.94746216    2.60596006
     atom   43 type  1   force =    -0.73060951   -0.79880951   -1.00105229
     atom   44 type  1   force =     2.44432502   -0.97076810   -4.50913848
     atom   45 type  2   force =    -6.55843080    6.18812455   11.74243808
     atom   46 type  2   force =     0.89613698   13.14717665   -5.26629911
     atom   47 type  2   force =    -7.61515236  -13.88965388   -0.73048729
     atom   48 type  2   force =    -7.22416491    7.29432368  -12.19011080
     atom   49 type  2   force =    10.20798501    4.28842713    7.91487110
     atom   50 type  2   force =     8.90990390  -11.72693952    4.26621166
     atom   51 type  2   force =    -7.71957140   -6.02792570   10.34889991
     atom   52 type  2   force =    13.70655865   -6.72669635   -3.69919130
     atom   53 type  2   force =    -2.34024164   14.76899502    0.65489925
     atom   54 type  2   force =    -5.16175051   -5.10522964  -13.43867305
     atom   55 type  2   force =     6.07379929   11.12147485    8.87001353
     atom   56 type  2   force =   -16.57320575    0.46626565   -7.98178318
     atom   57 type  2   force =     7.94844775    5.49534995   -1.52963587
     atom   58 type  2   force =     8.84485172   -5.18827714   10.23098921
     atom   59 type  2   force =     3.50091693  -15.70178065   -3.37196705
     atom   60 type  2   force =   -15.96026084    5.95170579    1.51355603
     atom   61 type  2   force =     0.65397493   -0.36600212    2.72150435
     atom   62 type  2   force =     2.80533831   -2.67499020  -14.52115485
     atom   63 type  2   force =     2.50842109   -2.73771696   14.33251677
     atom   64 type  2   force =     7.42072877    9.27317672   -2.12441512
     atom   65 type  2   force =   -11.67200430   -9.82765797    1.08841300
     atom   66 type  2   force =    11.29398900    2.65818274   -8.24973799
     The local contribution  to forces
     atom    1 type  1   force =     2.88749109   -3.37231294   -2.85828456
     atom    2 type  1   force =     2.83462100   -1.22135205    0.91537539
     atom    3 type  1   force =    -2.95977442   -0.66743076   -0.87507030
     atom    4 type  1   force =    -0.11880118   -0.90424289    3.61814179
     atom    5 type  1   force =     3.40817712    1.13445947   -1.32419022
     atom    6 type  1   force =    -2.14856043    0.88937025   -1.58000698
     atom    7 type  1   force =     2.09967653   -0.67412776    5.20087529
     atom    8 type  1   force =     0.04049482    2.35808618    1.95573895
     atom    9 type  1   force =     0.66493951    0.59722288   -3.53514821
     atom   10 type  1   force =    -0.80687746   -4.37000793   -1.37253698
     atom   11 type  1   force =     0.48397579    4.34056553   -3.31243342
     atom   12 type  1   force =    -0.84525189   -0.90757091   -2.47768423
     atom   13 type  1   force =     2.01550710   -2.22531318   -2.12450220
     atom   14 type  1   force =     5.07004693    2.13401489   -0.05704433
     atom   15 type  1   force =     0.15054496    3.74359607    2.01023498
     atom   16 type  1   force =    -2.57333204    1.72037827   -2.18916210
     atom   17 type  1   force =     0.02210275   -0.80772820    1.69061233
     atom   18 type  1   force =     1.04058557   -5.12486673    2.43193812
     atom   19 type  1   force =     2.05707406    3.01226420    0.02233810
     atom   20 type  1   force =    -1.68879523   -1.12334981    0.61953595
     atom   21 type  1   force =     0.56109014   -2.95963304    1.01401272
     atom   22 type  1   force =     2.21337466   -1.53991135   -3.37744768
     atom   23 type  1   force =     1.63176307    2.10814252   -0.74956847
     atom   24 type  1   force =    -0.16101136   -1.56913423    2.53620012
     atom   25 type  1   force =    -2.91964615    1.93100524   -0.06314166
     atom   26 type  1   force =    -3.22343183   -2.15773950    1.35400392
     atom   27 type  1   force =    -0.76320950   -2.31460422   -1.77017780
     atom   28 type  1   force =    -5.52828238   -0.28954096   -1.53887230
     atom   29 type  1   force =     1.94986519    4.63501697    2.16543980
     atom   30 type  1   force =     2.47824042    1.31312316    0.03804989
     atom   31 type  1   force =    -0.36148876   -3.40891494    0.60922251
     atom   32 type  1   force =     2.93210611    0.84409453    2.89162958
     atom   33 type  1   force =    -1.04787079   -1.18259856   -2.88985956
     atom   34 type  1   force =    -3.09654576   -0.13217678    0.74925381
     atom   35 type  1   force =    -1.28165110    4.30016705    2.63833239
     atom   36 type  1   force =     1.85723254    1.49827236    0.92541404
     atom   37 type  1   force =     1.62526251    0.53049727   -5.30380015
     atom   38 type  1   force =     2.10811919    1.29976158   -0.38083404
     atom   39 type  1   force =    -2.60149630    0.55638615    2.49686316
     atom   40 type  1   force =    -3.45424128   -4.01237375    0.43076462
     atom   41 type  1   force =    -0.99531728    0.11128514   -0.60629113
     atom   42 type  1   force =     2.22692345    0.95943585   -2.61401704
     atom   43 type  1   force =     0.68712213    0.75686354    0.98828690
     atom   44 type  1   force =    -2.44324158    0.96087979    4.48577614
     atom   45 type  2   force =     8.04068740   -7.21949698  -11.09512328
     atom   46 type  2   force =    -1.83362828  -11.83160797    5.73703261
     atom   47 type  2   force =     7.31953247   12.66114156   -0.42488976
     atom   48 type  2   force =     6.95163166   -5.87499250   13.58875305
     atom   49 type  2   force =    -8.85890362   -5.19713118   -8.80007397
     atom   50 type  2   force =    -8.01821753   11.54596555   -6.01838692
     atom   51 type  2   force =     9.43504891    5.17613997   -9.86773683
     atom   52 type  2   force =   -12.71914541    7.95508927    2.88851600
     atom   53 type  2   force =     2.32799309  -15.21759145    1.05263173
     atom   54 type  2   force =     4.62927232    5.30920521   11.83445165
     atom   55 type  2   force =    -4.13679140  -11.41130915   -8.50792611
     atom   56 type  2   force =    14.70660966   -0.16861730    7.55811149
     atom   57 type  2   force =    -9.32699767   -4.94337079    2.02178639
     atom   58 type  2   force =    -9.99375885    3.50776430  -10.19984645
     atom   59 type  2   force =    -1.47581303   15.91868125    3.85567151
     atom   60 type  2   force =    14.80576830   -6.02325099   -0.04279254
     atom   61 type  2   force =    -2.15710014   -0.05785535   -3.23171864
     atom   62 type  2   force =    -2.23730856    4.43176954   13.85169035
     atom   63 type  2   force =    -0.54833054    2.97974669  -14.77322601
     atom   64 type  2   force =    -9.05114667   -9.51105535    3.10344538
     atom   65 type  2   force =    10.76814921    9.03189913   -2.27932779
     atom   66 type  2   force =   -10.52374118   -1.51861838    9.44958256
     The core correction contribution to forces
     atom    1 type  1   force =     0.00000000    0.00000000    0.00000000
     atom    2 type  1   force =     0.00000000    0.00000000    0.00000000
     atom    3 type  1   force =     0.00000000    0.00000000    0.00000000
     atom    4 type  1   force =     0.00000000    0.00000000    0.00000000
     atom    5 type  1   force =     0.00000000    0.00000000    0.00000000
     atom    6 type  1   force =     0.00000000    0.00000000    0.00000000
     atom    7 type  1   force =     0.00000000    0.00000000    0.00000000
     atom    8 type  1   force =     0.00000000    0.00000000    0.00000000
     atom    9 type  1   force =     0.00000000    0.00000000    0.00000000
     atom   10 type  1   force =     0.00000000    0.00000000    0.00000000
     atom   11 type  1   force =     0.00000000    0.00000000    0.00000000
     atom   12 type  1   force =     0.00000000    0.00000000    0.00000000
     atom   13 type  1   force =     0.00000000    0.00000000    0.00000000
     atom   14 type  1   force =     0.00000000    0.00000000    0.00000000
     atom   15 type  1   force =     0.00000000    0.00000000    0.00000000
     atom   16 type  1   force =     0.00000000    0.00000000    0.00000000
     atom   17 type  1   force =     0.00000000    0.00000000    0.00000000
     atom   18 type  1   force =     0.00000000    0.00000000    0.00000000
     atom   19 type  1   force =     0.00000000    0.00000000    0.00000000
     atom   20 type  1   force =     0.00000000    0.00000000    0.00000000
     atom   21 type  1   force =     0.00000000    0.00000000    0.00000000
     atom   22 type  1   force =     0.00000000    0.00000000    0.00000000
     atom   23 type  1   force =     0.00000000    0.00000000    0.00000000
     atom   24 type  1   force =     0.00000000    0.00000000    0.00000000
     atom   25 type  1   force =     0.00000000    0.00000000    0.00000000
     atom   26 type  1   force =     0.00000000    0.00000000    0.00000000
     atom   27 type  1   force =     0.00000000    0.00000000    0.00000000
     atom   28 type  1   force =     0.00000000    0.00000000    0.00000000
     atom   29 type  1   force =     0.00000000    0.00000000    0.00000000
     atom   30 type  1   force =     0.00000000    0.00000000    0.00000000
     atom   31 type  1   force =     0.00000000    0.00000000    0.00000000
     atom   32 type  1   force =     0.00000000    0.00000000    0.00000000
     atom   33 type  1   force =     0.00000000    0.00000000    0.00000000
     atom   34 type  1   force =     0.00000000    0.00000000    0.00000000
     atom   35 type  1   force =     0.00000000    0.00000000    0.00000000
     atom   36 type  1   force =     0.00000000    0.00000000    0.00000000
     atom   37 type  1   force =     0.00000000    0.00000000    0.00000000
     atom   38 type  1   force =     0.00000000    0.00000000    0.00000000
     atom   39 type  1   force =     0.00000000    0.00000000    0.00000000
     atom   40 type  1   force =     0.00000000    0.00000000    0.00000000
     atom   41 type  1   force =     0.00000000    0.00000000    0.00000000
     atom   42 type  1   force =     0.00000000    0.00000000    0.00000000
     atom   43 type  1   force =     0.00000000    0.00000000    0.00000000
     atom   44 type  1   force =     0.00000000    0.00000000    0.00000000
     atom   45 type  2   force =     0.01702889   -0.01172392    0.00714458
     atom   46 type  2   force =    -0.01061765    0.01451171    0.00543400
     atom   47 type  2   force =    -0.00231252   -0.01297872   -0.01191651
     atom   48 type  2   force =    -0.00155106    0.01245269    0.01574053
     atom   49 type  2   force =     0.01294873   -0.00840968   -0.00926402
     atom   50 type  2   force =     0.00937650   -0.00097478   -0.01773152
     atom   51 type  2   force =     0.01853965   -0.00904541    0.00477255
     atom   52 type  2   force =     0.00945859    0.01226626   -0.00868988
     atom   53 type  2   force =     0.00076767   -0.00505227    0.01753540
     atom   54 type  2   force =    -0.00483816    0.00206334   -0.01626148
     atom   55 type  2   force =     0.02040862   -0.00433989    0.00453183
     atom   56 type  2   force =    -0.02023508    0.00264138   -0.00380285
     atom   57 type  2   force =    -0.01506042    0.00608436    0.00431900
     atom   58 type  2   force =    -0.01100348   -0.01575388    0.00060267
     atom   59 type  2   force =     0.02143568    0.00247433    0.00535865
     atom   60 type  2   force =    -0.01098876   -0.00024236    0.01448067
     atom   61 type  2   force =    -0.01563469   -0.00418532   -0.00398864
     atom   62 type  2   force =     0.00654836    0.02012752   -0.00648867
     atom   63 type  2   force =     0.02098147    0.00315767   -0.00330425
     atom   64 type  2   force =    -0.01775664   -0.00376189    0.00981196
     atom   65 type  2   force =    -0.00949695   -0.00760061   -0.01333466
     atom   66 type  2   force =     0.00724895    0.01204707    0.01389154
     The Hubbard contrib.    to forces
     atom    1 type  1   force =     0.00000000    0.00000000    0.00000000
     atom    2 type  1   force =     0.00000000    0.00000000    0.00000000
     atom    3 type  1   force =     0.00000000    0.00000000    0.00000000
     atom    4 type  1   force =     0.00000000    0.00000000    0.00000000
     atom    5 type  1   force =     0.00000000    0.00000000    0.00000000
     atom    6 type  1   force =     0.00000000    0.00000000    0.00000000
     atom    7 type  1   force =     0.00000000    0.00000000    0.00000000
     atom    8 type  1   force =     0.00000000    0.00000000    0.00000000
     atom    9 type  1   force =     0.00000000    0.00000000    0.00000000
     atom   10 type  1   force =     0.00000000    0.00000000    0.00000000
     atom   11 type  1   force =     0.00000000    0.00000000    0.00000000
     atom   12 type  1   force =     0.00000000    0.00000000    0.00000000
     atom   13 type  1   force =     0.00000000    0.00000000    0.00000000
     atom   14 type  1   force =     0.00000000    0.00000000    0.00000000
     atom   15 type  1   force =     0.00000000    0.00000000    0.00000000
     atom   16 type  1   force =     0.00000000    0.00000000    0.00000000
     atom   17 type  1   force =     0.00000000    0.00000000    0.00000000
     atom   18 type  1   force =     0.00000000    0.00000000    0.00000000
     atom   19 type  1   force =     0.00000000    0.00000000    0.00000000
     atom   20 type  1   force =     0.00000000    0.00000000    0.00000000
     atom   21 type  1   force =     0.00000000    0.00000000    0.00000000
     atom   22 type  1   force =     0.00000000    0.00000000    0.00000000
     atom   23 type  1   force =     0.00000000    0.00000000    0.00000000
     atom   24 type  1   force =     0.00000000    0.00000000    0.00000000
     atom   25 type  1   force =     0.00000000    0.00000000    0.00000000
     atom   26 type  1   force =     0.00000000    0.00000000    0.00000000
     atom   27 type  1   force =     0.00000000    0.00000000    0.00000000
     atom   28 type  1   force =     0.00000000    0.00000000    0.00000000
     atom   29 type  1   force =     0.00000000    0.00000000    0.00000000
     atom   30 type  1   force =     0.00000000    0.00000000    0.00000000
     atom   31 type  1   force =     0.00000000    0.00000000    0.00000000
     atom   32 type  1   force =     0.00000000    0.00000000    0.00000000
     atom   33 type  1   force =     0.00000000    0.00000000    0.00000000
     atom   34 type  1   force =     0.00000000    0.00000000    0.00000000
     atom   35 type  1   force =     0.00000000    0.00000000    0.00000000
     atom   36 type  1   force =     0.00000000    0.00000000    0.00000000
     atom   37 type  1   force =     0.00000000    0.00000000    0.00000000
     atom   38 type  1   force =     0.00000000    0.00000000    0.00000000
     atom   39 type  1   force =     0.00000000    0.00000000    0.00000000
     atom   40 type  1   force =     0.00000000    0.00000000    0.00000000
     atom   41 type  1   force =     0.00000000    0.00000000    0.00000000
     atom   42 type  1   force =     0.00000000    0.00000000    0.00000000
     atom   43 type  1   force =     0.00000000    0.00000000    0.00000000
     atom   44 type  1   force =     0.00000000    0.00000000    0.00000000
     atom   45 type  2   force =     0.00000000    0.00000000    0.00000000
     atom   46 type  2   force =     0.00000000    0.00000000    0.00000000
     atom   47 type  2   force =     0.00000000    0.00000000    0.00000000
     atom   48 type  2   force =     0.00000000    0.00000000    0.00000000
     atom   49 type  2   force =     0.00000000    0.00000000    0.00000000
     atom   50 type  2   force =     0.00000000    0.00000000    0.00000000
     atom   51 type  2   force =     0.00000000    0.00000000    0.00000000
     atom   52 type  2   force =     0.00000000    0.00000000    0.00000000
     atom   53 type  2   force =     0.00000000    0.00000000    0.00000000
     atom   54 type  2   force =     0.00000000    0.00000000    0.00000000
     atom   55 type  2   force =     0.00000000    0.00000000    0.00000000
     atom   56 type  2   force =     0.00000000    0.00000000    0.00000000
     atom   57 type  2   force =     0.00000000    0.00000000    0.00000000
     atom   58 type  2   force =     0.00000000    0.00000000    0.00000000
     atom   59 type  2   force =     0.00000000    0.00000000    0.00000000
     atom   60 type  2   force =     0.00000000    0.00000000    0.00000000
     atom   61 type  2   force =     0.00000000    0.00000000    0.00000000
     atom   62 type  2   force =     0.00000000    0.00000000    0.00000000
     atom   63 type  2   force =     0.00000000    0.00000000    0.00000000
     atom   64 type  2   force =     0.00000000    0.00000000    0.00000000
     atom   65 type  2   force =     0.00000000    0.00000000    0.00000000
     atom   66 type  2   force =     0.00000000    0.00000000    0.00000000
     The SCF correction term to forces
     atom    1 type  1   force =     0.00005045   -0.00006162   -0.00002630
     atom    2 type  1   force =     0.00003237   -0.00000588    0.00006473
     atom    3 type  1   force =    -0.00002193    0.00001662   -0.00000749
     atom    4 type  1   force =    -0.00000760    0.00001530    0.00001865
     atom    5 type  1   force =     0.00000598   -0.00001372   -0.00001361
     atom    6 type  1   force =    -0.00002774   -0.00001103   -0.00000810
     atom    7 type  1   force =     0.00000633    0.00000814    0.00002771
     atom    8 type  1   force =    -0.00000192    0.00001481    0.00000527
     atom    9 type  1   force =     0.00001720    0.00000205   -0.00001758
     atom   10 type  1   force =     0.00000756   -0.00002271   -0.00000299
     atom   11 type  1   force =     0.00001729    0.00001745   -0.00002694
     atom   12 type  1   force =     0.00001147   -0.00001613   -0.00001082
     atom   13 type  1   force =     0.00001998   -0.00001587    0.00000787
     atom   14 type  1   force =     0.00003877    0.00000914    0.00001915
     atom   15 type  1   force =     0.00003564    0.00002710    0.00001322
     atom   16 type  1   force =     0.00000679    0.00000391   -0.00002787
     atom   17 type  1   force =     0.00001417   -0.00000154    0.00000686
     atom   18 type  1   force =     0.00000807   -0.00001609    0.00001585
     atom   19 type  1   force =     0.00000123    0.00001994   -0.00002734
     atom   20 type  1   force =    -0.00001728   -0.00000349   -0.00001744
     atom   21 type  1   force =     0.00002102   -0.00001389    0.00001808
     atom   22 type  1   force =     0.00001752   -0.00000858   -0.00000704
     atom   23 type  1   force =    -0.00000603    0.00000194   -0.00000801
     atom   24 type  1   force =    -0.00001778   -0.00000867    0.00000507
     atom   25 type  1   force =    -0.00000119    0.00001786   -0.00000524
     atom   26 type  1   force =    -0.00002917   -0.00000871    0.00001258
     atom   27 type  1   force =    -0.00000518   -0.00002431    0.00000061
     atom   28 type  1   force =    -0.00003650   -0.00001135    0.00000002
     atom   29 type  1   force =     0.00000905    0.00000467    0.00000403
     atom   30 type  1   force =     0.00000222    0.00000591    0.00000767
     atom   31 type  1   force =    -0.00001523   -0.00001309    0.00001341
     atom   32 type  1   force =    -0.00000573    0.00000518    0.00002588
     atom   33 type  1   force =    -0.00000954   -0.00000907   -0.00001919
     atom   34 type  1   force =    -0.00003056    0.00000712    0.00001221
     atom   35 type  1   force =    -0.00000070    0.00002585   -0.00000054
     atom   36 type  1   force =     0.00000419    0.00002374   -0.00000568
     atom   37 type  1   force =     0.00000346    0.00000059   -0.00001494
     atom   38 type  1   force =    -0.00000235    0.00000490    0.00000025
     atom   39 type  1   force =    -0.00001357    0.00000777    0.00000991
     atom   40 type  1   force =    -0.00001841   -0.00001487    0.00000261
     atom   41 type  1   force =    -0.00001947   -0.00000329   -0.00000127
     atom   42 type  1   force =     0.00000649   -0.00000969   -0.00001803
     atom   43 type  1   force =     0.00000093    0.00000854    0.00000037
     atom   44 type  1   force =    -0.00000221    0.00000932    0.00001533
     atom   45 type  2   force =     0.00019449   -0.00015888    0.00010086
     atom   46 type  2   force =    -0.00011153    0.00010639    0.00004163
     atom   47 type  2   force =    -0.00011777   -0.00009339   -0.00004568
     atom   48 type  2   force =    -0.00002982    0.00016778    0.00013951
     atom   49 type  2   force =     0.00009799   -0.00006219   -0.00003843
     atom   50 type  2   force =     0.00010534   -0.00003129   -0.00018422
     atom   51 type  2   force =     0.00021276    0.00001251    0.00012307
     atom   52 type  2   force =     0.00011611    0.00009538   -0.00006657
     atom   53 type  2   force =     0.00004040   -0.00010658    0.00016846
     atom   54 type  2   force =    -0.00007709    0.00004101   -0.00015694
     atom   55 type  2   force =     0.00020216   -0.00007956    0.00003068
     atom   56 type  2   force =    -0.00009452    0.00000512   -0.00003293
     atom   57 type  2   force =    -0.00004555    0.00015035   -0.00002054
     atom   58 type  2   force =    -0.00015743   -0.00012583    0.00000708
     atom   59 type  2   force =     0.00016992    0.00006810    0.00004798
     atom   60 type  2   force =    -0.00012558   -0.00005071    0.00016479
     atom   61 type  2   force =    -0.00014175   -0.00002849   -0.00004131
     atom   62 type  2   force =     0.00002717    0.00026009   -0.00004333
     atom   63 type  2   force =     0.00006847    0.00000631   -0.00011988
     atom   64 type  2   force =    -0.00014969   -0.00005388    0.00005875
     atom   65 type  2   force =    -0.00011648   -0.00009523   -0.00007603
     atom   66 type  2   force =     0.00004121    0.00011322    0.00011884

     Total force =     0.496485     Total SCF correction =     0.000915


     Computing stress (Cartesian axis) and pressure


     negative rho (up, down):  5.023E-01 0.000E+00
          total   stress  (Ry/bohr**3)                   (kbar)     P=       -2.89
  -0.00001943  -0.00000002   0.00000001           -2.86       -0.00        0.00
  -0.00000002  -0.00001911  -0.00000037           -0.00       -2.81       -0.05
   0.00000001  -0.00000037  -0.00002045            0.00       -0.05       -3.01


     init_run     :      8.12s CPU      8.58s WALL (       1 calls)
     electrons    :     82.68s CPU     87.91s WALL (       1 calls)
     forces       :      6.05s CPU      6.37s WALL (       1 calls)
     stress       :     17.14s CPU     17.69s WALL (       1 calls)

     Called by init_run:
     wfcinit      :      3.12s CPU      3.29s WALL (       1 calls)
     potinit      :      1.32s CPU      1.40s WALL (       1 calls)
     hinit0       :      0.98s CPU      1.06s WALL (       1 calls)

     Called by electrons:
     c_bands      :     55.07s CPU     57.61s WALL (      10 calls)
     sum_band     :     15.89s CPU     17.07s WALL (      10 calls)
     v_of_rho     :      6.82s CPU      7.42s WALL (      11 calls)
     newd         :      3.49s CPU      4.42s WALL (      11 calls)
     PAW_pot      :      1.01s CPU      1.01s WALL (      11 calls)
     mix_rho      :      1.22s CPU      1.31s WALL (      10 calls)

     Called by c_bands:
     init_us_2    :      0.82s CPU      0.85s WALL (      21 calls)
     init_us_2:cp :      0.82s CPU      0.85s WALL (      21 calls)
     regterg      :     54.12s CPU     56.65s WALL (      10 calls)

     Called by *egterg:
     rdiaghg      :      0.21s CPU      0.21s WALL (      32 calls)
     h_psi        :     48.89s CPU     51.01s WALL (      33 calls)
     s_psi        :      1.39s CPU      1.39s WALL (      33 calls)
     g_psi        :      0.16s CPU      0.16s WALL (      22 calls)

     Called by h_psi:
     h_psi:calbec :      1.17s CPU      1.18s WALL (      33 calls)
     vloc_psi     :     45.88s CPU     47.97s WALL (      33 calls)
     add_vuspsi   :      1.37s CPU      1.38s WALL (      33 calls)

     General routines
     calbec       :      1.78s CPU      1.79s WALL (      48 calls)
     fft          :      4.04s CPU      4.69s WALL (     119 calls)
     ffts         :      0.28s CPU      0.31s WALL (      10 calls)
     fftw         :     39.10s CPU     41.45s WALL (    2884 calls)

     Parallel routines

     PWSCF        :   1m54.11s CPU   2m 0.71s WALL


   This run was terminated on:  13:33:47  27Mar2024            

=------------------------------------------------------------------------------=
   JOB DONE.
=------------------------------------------------------------------------------=
