
     Program PWSCF v.7.2 starts on 27Mar2024 at 21: 2:11 

     This program is part of the open-source Quantum ESPRESSO suite
     for quantum simulation of materials; please cite
         "P. Giannozzi et al., J. Phys.:Condens. Matter 21 395502 (2009);
         "P. Giannozzi et al., J. Phys.:Condens. Matter 29 465901 (2017);
         "P. Giannozzi et al., J. Chem. Phys. 152 154105 (2020);
          URL http://www.quantum-espresso.org", 
     in publications or presentations arising from this work. More details at
     http://www.quantum-espresso.org/quote

     Parallel version (MPI), running on    32 processors

     MPI processes distributed on     1 nodes
     175165 MiB available memory on the printing compute node when the environment starts

     Reading input from pw-wt-351.in
Warning: card &CELL ignored
Warning: card / ignored

     Current dimensions of program PWSCF are:
     Max number of different atomic species (ntypx) = 10
     Max number of k-points (npk) =  40000
     Max angular momentum in pseudopotentials (lmaxx) =  4
     file O.pbe-n-kjpaw_psl.0.1.UPF: wavefunction(s)  2P renormalized

     IMPORTANT: XC functional enforced from input :
     Exchange-correlation= PBE
                           (   1   4   3   4   0   0   0)
     Any further DFT definition will be discarded
     Please, verify this is what you really want


     gamma-point specific algorithms are used

     R & G space division:  proc/nbgrp/npool/nimage =      32
     Subspace diagonalization in iterative solution of the eigenvalue problem:
     a serial algorithm will be used


     Parallelization info
     --------------------
     sticks:   dense  smooth     PW     G-vecs:    dense   smooth      PW
     Min        1707    1707    426               301015   301015   37634
     Max        1710    1710    428               301034   301034   37648
     Sum       54693   54693  13673              9632757  9632757 1204469

     Using Slab Decomposition



     bravais-lattice index     =            0
     lattice parameter (alat)  =      75.7119  a.u.
     unit-cell volume          =  434002.3113 (a.u.)^3
     number of atoms/cell      =           66
     number of atomic types    =            2
     number of electrons       =       176.00
     number of Kohn-Sham states=           88
     kinetic-energy cutoff     =      30.0000  Ry
     charge density cutoff     =     120.0000  Ry
     scf convergence threshold =      1.0E-06
     mixing beta               =       0.5000
     number of iterations used =            8  plain     mixing
     Exchange-correlation= PBE
                           (   1   4   3   4   0   0   0)

     celldm(1)=  75.711877  celldm(2)=   0.000000  celldm(3)=   0.000000
     celldm(4)=   0.000000  celldm(5)=   0.000000  celldm(6)=   0.000000

     crystal axes: (cart. coord. in units of alat)
               a(1) = (   1.000000   0.000000   0.000000 )  
               a(2) = (   0.000000   1.000000   0.000000 )  
               a(3) = (   0.000000   0.000000   1.000000 )  

     reciprocal axes: (cart. coord. in units 2 pi/alat)
               b(1) = (  1.000000  0.000000  0.000000 )  
               b(2) = (  0.000000  1.000000  0.000000 )  
               b(3) = (  0.000000  0.000000  1.000000 )  


     PseudoPot. # 1 for H  read from file:
     /share/pfaendtnergroup/rverma7/QE_PP/H.pbe-rrkjus_psl.1.0.0.UPF
     MD5 check sum: f52b6d4d1c606e5624b1dc7b2218f220
     Pseudo is Ultrasoft, Zval =  1.0
     Generated using "atomic" code by A. Dal Corso  v.5.1
     Using radial grid of  929 points,  2 beta functions with: 
                l(1) =   0
                l(2) =   0
     Q(r) pseudized with 0 coefficients 


     PseudoPot. # 2 for O  read from file:
     /share/pfaendtnergroup/rverma7/QE_PP/O.pbe-n-kjpaw_psl.0.1.UPF
     MD5 check sum: 0234752ac141de4415c5fc33072bef88
     Pseudo is Projector augmented-wave + core cor, Zval =  6.0
     Generated using "atomic" code by A. Dal Corso  v.5.0.99 svn rev. 10869
     Shape of augmentation charge: BESSEL
     Using radial grid of 1095 points,  4 beta functions with: 
                l(1) =   0
                l(2) =   0
                l(3) =   1
                l(4) =   1
     Q(r) pseudized with 0 coefficients 


     atomic species   valence    mass     pseudopotential
        H              1.00     1.00800     H ( 1.00)
        O              6.00    15.99900     O ( 1.00)

     No symmetry found



   Cartesian axes

     site n.     atom                  positions (alat units)
         1           H   tau(   1) = (   0.2666417   0.2522651   0.4566829  )
         2           H   tau(   2) = (   0.2568576   0.2122052   0.4491701  )
         3           H   tau(   3) = (   0.3443404   0.3090728   0.3900911  )
         4           H   tau(   4) = (   0.3052290   0.2991389   0.3829777  )
         5           H   tau(   5) = (   0.4398103   0.2764508   0.3548733  )
         6           H   tau(   6) = (   0.4545364   0.3024835   0.3821790  )
         7           H   tau(   7) = (   0.1879695   0.2807188   0.4013229  )
         8           H   tau(   8) = (   0.1906402   0.2615250   0.3643330  )
         9           H   tau(   9) = (   0.3682766   0.2209659   0.4988144  )
        10           H   tau(  10) = (   0.3705229   0.2250094   0.5380756  )
        11           H   tau(  11) = (   0.4081368   0.2484213   0.4284288  )
        12           H   tau(  12) = (   0.4122551   0.2105828   0.4139523  )
        13           H   tau(  13) = (   0.4042431   0.2939973   0.4623237  )
        14           H   tau(  14) = (   0.4196431   0.3085736   0.4267815  )
        15           H   tau(  15) = (   0.2804692   0.1972545   0.3779109  )
        16           H   tau(  16) = (   0.3153126   0.2216648   0.3714214  )
        17           H   tau(  17) = (   0.3072008   0.2834644   0.3243979  )
        18           H   tau(  18) = (   0.2831898   0.2507925   0.3343567  )
        19           H   tau(  19) = (   0.1576438   0.2822414   0.3092475  )
        20           H   tau(  20) = (   0.1588918   0.2445776   0.3275927  )
        21           H   tau(  21) = (   0.3206539   0.2089105   0.4501685  )
        22           H   tau(  22) = (   0.3624610   0.2132784   0.4474229  )
        23           H   tau(  23) = (   0.1553725   0.1679770   0.3200549  )
        24           H   tau(  24) = (   0.1878198   0.1916635   0.3333833  )
        25           H   tau(  25) = (   0.2116311   0.2240359   0.4156496  )
        26           H   tau(  26) = (   0.1934107   0.1873456   0.4214402  )
        27           H   tau(  27) = (   0.3881942   0.2345439   0.3486584  )
        28           H   tau(  28) = (   0.4225384   0.2307001   0.3263946  )
        29           H   tau(  29) = (   0.2550855   0.2615999   0.2904530  )
        30           H   tau(  30) = (   0.2334706   0.2760764   0.2596281  )
        31           H   tau(  31) = (   0.2754524   0.2546612   0.3858979  )
        32           H   tau(  32) = (   0.2399850   0.2743791   0.3890927  )
        33           H   tau(  33) = (   0.3759890   0.3183577   0.5110196  )
        34           H   tau(  34) = (   0.3730438   0.2782978   0.5037564  )
        35           H   tau(  35) = (   0.3442656   0.2626482   0.3717210  )
        36           H   tau(  36) = (   0.3673031   0.2291776   0.3903657  )
        37           H   tau(  37) = (   0.3598902   0.3627855   0.4216149  )
        38           H   tau(  38) = (   0.3549981   0.3332085   0.4502933  )
        39           H   tau(  39) = (   0.2484213   0.2087608   0.3298640  )
        40           H   tau(  40) = (   0.2236615   0.2203419   0.2979408  )
        41           H   tau(  41) = (   0.2486210   0.1720953   0.4097591  )
        42           H   tau(  42) = (   0.2834145   0.1481343   0.4194184  )
        43           H   tau(  43) = (   0.1643829   0.1789093   0.3801822  )
        44           H   tau(  44) = (   0.1403469   0.1543741   0.4000250  )
        45           O   tau(  45) = (   0.2752777   0.2284038   0.4565831  )
        46           O   tau(  46) = (   0.3287658   0.2978909   0.3726694  )
        47           O   tau(  47) = (   0.4531386   0.2975914   0.3584425  )
        48           O   tau(  48) = (   0.2004742   0.2618745   0.3883939  )
        49           O   tau(  49) = (   0.3735680   0.2373643   0.5163609  )
        50           O   tau(  50) = (   0.3941345   0.2275552   0.4223387  )
        51           O   tau(  51) = (   0.4186946   0.2886310   0.4414576  )
        52           O   tau(  52) = (   0.2896294   0.2183701   0.3658804  )
        53           O   tau(  53) = (   0.2883065   0.2685636   0.3168851  )
        54           O   tau(  54) = (   0.1683514   0.2681642   0.3276426  )
        55           O   tau(  55) = (   0.3423687   0.2041932   0.4628229  )
        56           O   tau(  56) = (   0.1640085   0.1834269   0.3378510  )
        57           O   tau(  57) = (   0.2151005   0.2005741   0.4244353  )
        58           O   tau(  58) = (   0.4128042   0.2437040   0.3461375  )
        59           O   tau(  59) = (   0.2398602   0.2541620   0.2728566  )
        60           O   tau(  60) = (   0.2652939   0.2773743   0.3925371  )
        61           O   tau(  61) = (   0.3746162   0.3010109   0.4938974  )
        62           O   tau(  62) = (   0.3530513   0.2372894   0.3692000  )
        63           O   tau(  63) = (   0.3533009   0.3392737   0.4254337  )
        64           O   tau(  64) = (   0.2248346   0.2057407   0.3200549  )
        65           O   tau(  65) = (   0.2741295   0.1673281   0.4050917  )
        66           O   tau(  66) = (   0.1590915   0.1703482   0.4041433  )

     number of k points=     1
                       cart. coord. in units 2pi/alat
        k(    1) = (   0.0000000   0.0000000   0.0000000), wk =   2.0000000

     Dense  grid:  4816379 G-vectors     FFT dimensions: ( 270, 270, 270)

     Estimated max dynamical RAM per process >     612.29 MB

     Estimated total dynamical RAM >      19.13 GB

     Check: negative core charge=   -0.000006

     Initial potential from superposition of free atoms

     starting charge     175.9995, renormalised to     176.0000

     negative rho (up, down):  3.703E-01 0.000E+00
     Starting wfcs are  132 randomized atomic wfcs
     Checking if some PAW data can be deallocated... 

     total cpu time spent up to now is        8.1 secs

     Self-consistent Calculation

     iteration #  1     ecut=    30.00 Ry     beta= 0.50
     Davidson diagonalization with overlap
     ethr =  1.00E-02,  avg # of iterations =  2.0

     negative rho (up, down):  4.366E-01 0.000E+00

     total cpu time spent up to now is       16.0 secs

     total energy              =    -965.63285895 Ry
     estimated scf accuracy    <       7.08792143 Ry

     iteration #  2     ecut=    30.00 Ry     beta= 0.50
     Davidson diagonalization with overlap
     ethr =  4.03E-03,  avg # of iterations =  2.0

     negative rho (up, down):  4.554E-01 0.000E+00

     total cpu time spent up to now is       24.3 secs

     total energy              =    -967.64993936 Ry
     estimated scf accuracy    <       1.10413447 Ry

     iteration #  3     ecut=    30.00 Ry     beta= 0.50
     Davidson diagonalization with overlap
     ethr =  6.27E-04,  avg # of iterations =  2.0

     negative rho (up, down):  4.998E-01 0.000E+00

     total cpu time spent up to now is       31.8 secs

     total energy              =    -967.71063399 Ry
     estimated scf accuracy    <       0.13721766 Ry

     iteration #  4     ecut=    30.00 Ry     beta= 0.50
     Davidson diagonalization with overlap
     ethr =  7.80E-05,  avg # of iterations =  3.0

     negative rho (up, down):  4.995E-01 0.000E+00

     total cpu time spent up to now is       40.5 secs

     total energy              =    -967.73592008 Ry
     estimated scf accuracy    <       0.04519580 Ry

     iteration #  5     ecut=    30.00 Ry     beta= 0.50
     Davidson diagonalization with overlap
     ethr =  2.57E-05,  avg # of iterations =  2.0

     negative rho (up, down):  4.985E-01 0.000E+00

     total cpu time spent up to now is       47.4 secs

     total energy              =    -967.73671414 Ry
     estimated scf accuracy    <       0.00819059 Ry

     iteration #  6     ecut=    30.00 Ry     beta= 0.50
     Davidson diagonalization with overlap
     ethr =  4.65E-06,  avg # of iterations =  2.0

     negative rho (up, down):  4.976E-01 0.000E+00

     total cpu time spent up to now is       54.5 secs

     total energy              =    -967.73703098 Ry
     estimated scf accuracy    <       0.00154609 Ry

     iteration #  7     ecut=    30.00 Ry     beta= 0.50
     Davidson diagonalization with overlap
     ethr =  8.78E-07,  avg # of iterations =  2.0

     negative rho (up, down):  4.973E-01 0.000E+00

     total cpu time spent up to now is       62.4 secs

     total energy              =    -967.73726373 Ry
     estimated scf accuracy    <       0.00009526 Ry

     iteration #  8     ecut=    30.00 Ry     beta= 0.50
     Davidson diagonalization with overlap
     ethr =  5.41E-08,  avg # of iterations =  3.0

     negative rho (up, down):  4.973E-01 0.000E+00

     total cpu time spent up to now is       73.3 secs

     total energy              =    -967.73730590 Ry
     estimated scf accuracy    <       0.00002149 Ry

     iteration #  9     ecut=    30.00 Ry     beta= 0.50
     Davidson diagonalization with overlap
     ethr =  1.22E-08,  avg # of iterations =  2.0

     negative rho (up, down):  4.974E-01 0.000E+00

     total cpu time spent up to now is       80.4 secs

     total energy              =    -967.73730186 Ry
     estimated scf accuracy    <       0.00001214 Ry

     iteration # 10     ecut=    30.00 Ry     beta= 0.50
     Davidson diagonalization with overlap
     ethr =  6.90E-09,  avg # of iterations =  2.0

     negative rho (up, down):  4.974E-01 0.000E+00

     total cpu time spent up to now is       88.1 secs

     End of self-consistent calculation

          k = 0.0000 0.0000 0.0000 (602235 PWs)   bands (ev):

   -25.7799 -25.7790 -25.5409 -25.4894 -25.3892 -25.3571 -25.1475 -24.9303
   -24.8932 -24.8297 -24.7065 -24.6394 -24.3727 -24.3086 -24.2931 -24.0954
   -23.9032 -23.8973 -23.7369 -23.5727 -23.3877 -23.3086 -13.9993 -13.9427
   -13.5948 -13.5693 -13.2122 -13.1077 -13.0480 -13.0042 -12.9462 -12.8916
   -12.7559 -12.6539 -12.5864 -12.4558 -12.3103 -12.1251 -12.1033 -11.9796
   -11.8231 -11.6524 -11.6308 -11.5451 -10.6622 -10.5936 -10.4167 -10.3711
   -10.1036  -9.8798  -9.7821  -9.5499  -9.5034  -9.2843  -9.1762  -9.0413
    -8.9409  -8.8494  -8.7316  -8.4874  -8.4274  -8.2593  -8.0765  -8.0015
    -7.9047  -7.8501  -7.7721  -7.7133  -7.6307  -7.5631  -7.5080  -7.4132
    -7.2978  -7.2661  -7.1685  -7.0867  -7.0672  -6.9955  -6.9000  -6.7542
    -6.7022  -6.5725  -6.5357  -6.4400  -6.2292  -6.0405  -5.9164  -5.8006

     highest occupied level (ev):    -5.8006

!    total energy              =    -967.73730316 Ry
     estimated scf accuracy    <       0.00000059 Ry

     The total energy is the sum of the following terms:
     one-electron contribution =   -5559.91371292 Ry
     hartree contribution      =    2816.18098085 Ry
     xc contribution           =    -193.24411163 Ry
     ewald contribution        =    2178.55501074 Ry
     one-center paw contrib.   =    -209.31547019 Ry

     convergence has been achieved in  10 iterations

     negative rho (up, down):  4.974E-01 0.000E+00

     Forces acting on atoms (cartesian axes, Ry/au):

     atom    1 type  1   force =     0.01000971   -0.06805666   -0.01399729
     atom    2 type  1   force =     0.03089596    0.06107717    0.01545450
     atom    3 type  1   force =    -0.05037113   -0.01557048   -0.04122441
     atom    4 type  1   force =     0.03150445   -0.01330335   -0.01669571
     atom    5 type  1   force =     0.00296100    0.02614445    0.01975901
     atom    6 type  1   force =    -0.00211296   -0.01475170    0.00508829
     atom    7 type  1   force =     0.03790542   -0.06957401   -0.05730799
     atom    8 type  1   force =     0.01831508    0.02138134    0.05831982
     atom    9 type  1   force =    -0.02841501   -0.00632172   -0.01287178
     atom   10 type  1   force =     0.00472464    0.02875448   -0.04651747
     atom   11 type  1   force =    -0.03050181   -0.00950559   -0.01074022
     atom   12 type  1   force =    -0.06921954    0.06294060    0.03196897
     atom   13 type  1   force =     0.02551258    0.00588335   -0.04594534
     atom   14 type  1   force =    -0.01557032   -0.02010691    0.02138580
     atom   15 type  1   force =     0.04762150    0.04573226   -0.01475477
     atom   16 type  1   force =    -0.04457445   -0.01597217   -0.02293259
     atom   17 type  1   force =    -0.04282014   -0.03863559    0.00058852
     atom   18 type  1   force =     0.03706759    0.03766682   -0.01532930
     atom   19 type  1   force =     0.02548162   -0.05284529    0.05215674
     atom   20 type  1   force =     0.00833564    0.05287702   -0.01952729
     atom   21 type  1   force =     0.04347359    0.00613187    0.03842904
     atom   22 type  1   force =    -0.08484837   -0.03722450    0.04830630
     atom   23 type  1   force =     0.03653483    0.03206108    0.03182813
     atom   24 type  1   force =    -0.00979847   -0.02270565   -0.02312530
     atom   25 type  1   force =    -0.00748716   -0.04297010    0.00073631
     atom   26 type  1   force =     0.02830286    0.02961076    0.00644361
     atom   27 type  1   force =     0.04525920    0.04392965    0.00009926
     atom   28 type  1   force =    -0.02608439    0.03714057    0.05366031
     atom   29 type  1   force =     0.03597251    0.02631213    0.01575271
     atom   30 type  1   force =     0.02769607   -0.09660131    0.06230745
     atom   31 type  1   force =    -0.02782761    0.03043208    0.01214432
     atom   32 type  1   force =     0.05448255    0.00306287    0.00104209
     atom   33 type  1   force =     0.00327383   -0.01807293    0.00748401
     atom   34 type  1   force =    -0.00629314   -0.01235435    0.02459357
     atom   35 type  1   force =     0.02279208   -0.04754340    0.00530397
     atom   36 type  1   force =    -0.04893405    0.05784968   -0.05613421
     atom   37 type  1   force =    -0.00550635   -0.02195649    0.01883187
     atom   38 type  1   force =     0.00064945    0.02293773   -0.06574665
     atom   39 type  1   force =    -0.06344681   -0.00755684   -0.02840056
     atom   40 type  1   force =     0.01892053   -0.03405209    0.07486156
     atom   41 type  1   force =     0.07504180   -0.01589181    0.00758277
     atom   42 type  1   force =    -0.04329297    0.06236908   -0.04353200
     atom   43 type  1   force =    -0.02549927   -0.03212706    0.04105510
     atom   44 type  1   force =     0.03145165    0.02309034    0.01268812
     atom   45 type  2   force =    -0.03724332    0.00291009   -0.00246324
     atom   46 type  2   force =     0.01059473    0.03489095    0.06216479
     atom   47 type  2   force =    -0.00090306   -0.00524543   -0.02211414
     atom   48 type  2   force =    -0.06724528    0.05611359    0.00357913
     atom   49 type  2   force =     0.01026253   -0.01710317    0.05644917
     atom   50 type  2   force =     0.10248797   -0.05121052   -0.01761690
     atom   51 type  2   force =    -0.01436004    0.00632450    0.02874072
     atom   52 type  2   force =     0.00377368   -0.02317498    0.01984367
     atom   53 type  2   force =     0.00970826   -0.00228594    0.01446924
     atom   54 type  2   force =    -0.03866601   -0.01549184   -0.03164559
     atom   55 type  2   force =     0.05075270    0.03289935   -0.07897597
     atom   56 type  2   force =    -0.01081419    0.00552005   -0.01692295
     atom   57 type  2   force =    -0.01282697    0.00242874   -0.00918175
     atom   58 type  2   force =    -0.00390286   -0.07759633   -0.06604563
     atom   59 type  2   force =    -0.06389878    0.06936488   -0.08714386
     atom   60 type  2   force =    -0.00658553   -0.02504338   -0.00350817
     atom   61 type  2   force =     0.00433349    0.02916026   -0.03426844
     atom   62 type  2   force =     0.01089377   -0.01474043    0.05891951
     atom   63 type  2   force =     0.00746571   -0.00957137    0.04566532
     atom   64 type  2   force =     0.04062553    0.04375496   -0.04257917
     atom   65 type  2   force =    -0.04966613   -0.04556839    0.04405222
     atom   66 type  2   force =    -0.01636837   -0.00002092   -0.05450722
     The non-local contrib.  to forces
     atom    1 type  1   force =     0.02844605   -0.09095320   -0.00128927
     atom    2 type  1   force =     0.06395352    0.06166850    0.02629781
     atom    3 type  1   force =    -0.05456713   -0.03862116   -0.05846732
     atom    4 type  1   force =     0.08446094   -0.00388673   -0.03393216
     atom    5 type  1   force =     0.05055832    0.07993678    0.01797051
     atom    6 type  1   force =    -0.00911019   -0.02561117   -0.10677793
     atom    7 type  1   force =     0.04004556   -0.06199215   -0.04533008
     atom    8 type  1   force =     0.03050632    0.00284899    0.08083571
     atom    9 type  1   force =     0.02367572    0.06983966    0.07902332
     atom   10 type  1   force =     0.01128806    0.04659434   -0.08573846
     atom   11 type  1   force =    -0.04568823   -0.07130214   -0.02099388
     atom   12 type  1   force =    -0.05759273    0.05581975    0.02789731
     atom   13 type  1   force =     0.04705907   -0.01474191   -0.07047865
     atom   14 type  1   force =    -0.00593974   -0.08224208    0.06354691
     atom   15 type  1   force =     0.03097988    0.06849408   -0.03807491
     atom   16 type  1   force =    -0.07275510   -0.01044711   -0.01444133
     atom   17 type  1   force =    -0.07359599   -0.05971281   -0.02648491
     atom   18 type  1   force =     0.02099798    0.06706557   -0.06237840
     atom   19 type  1   force =     0.03681093   -0.05447834    0.06642163
     atom   20 type  1   force =     0.03301129    0.09004736   -0.00301981
     atom   21 type  1   force =     0.08088690   -0.01600034    0.04315984
     atom   22 type  1   force =    -0.05674070   -0.02402690    0.04034614
     atom   23 type  1   force =     0.03734410    0.06099490    0.06864697
     atom   24 type  1   force =    -0.08349936   -0.03067560    0.01222026
     atom   25 type  1   force =     0.01076845   -0.09034201    0.03297898
     atom   26 type  1   force =     0.07608966    0.04963132    0.00892324
     atom   27 type  1   force =     0.07251960    0.02555898   -0.00808014
     atom   28 type  1   force =    -0.03655576    0.04541703    0.07069111
     atom   29 type  1   force =    -0.06934015   -0.03074893   -0.07925383
     atom   30 type  1   force =     0.02045270   -0.06609969    0.04269028
     atom   31 type  1   force =    -0.03639262    0.07657920    0.02158178
     atom   32 type  1   force =     0.08581681    0.00822887    0.01082980
     atom   33 type  1   force =    -0.00575817   -0.08057969   -0.07454957
     atom   34 type  1   force =     0.00689150    0.09575130   -0.03716008
     atom   35 type  1   force =     0.02228181   -0.06168833   -0.00343618
     atom   36 type  1   force =    -0.03960056    0.02472258   -0.05736568
     atom   37 type  1   force =    -0.02716449   -0.09967623    0.02061390
     atom   38 type  1   force =    -0.00448690    0.02657265   -0.08871649
     atom   39 type  1   force =    -0.08313623   -0.00867958   -0.03640974
     atom   40 type  1   force =     0.00578235   -0.04321363    0.06727371
     atom   41 type  1   force =     0.07861727   -0.01788432   -0.01181426
     atom   42 type  1   force =    -0.03592922    0.06706069   -0.04936181
     atom   43 type  1   force =    -0.01870994   -0.02938957    0.07793901
     atom   44 type  1   force =     0.07556480    0.06445732    0.01448575
     atom   45 type  2   force =    -1.96520012    0.62780226   -0.53947156
     atom   46 type  2   force =    -0.34652400    0.50291890    1.81542128
     atom   47 type  2   force =    -0.81859211   -1.10233484    1.75328972
     atom   48 type  2   force =    -1.42033321    1.30933349   -0.58095556
     atom   49 type  2   force =    -0.54813395   -1.87497227    0.39220649
     atom   50 type  2   force =     1.89827466    0.00819527   -0.22191039
     atom   51 type  2   force =    -0.94097964    1.70793130    0.12400054
     atom   52 type  2   force =     0.67804816   -0.92915086    0.97699810
     atom   53 type  2   force =     0.89646987   -0.10272040    1.66754529
     atom   54 type  2   force =    -1.52752971   -0.68735655   -1.27203963
     atom   55 type  2   force =    -0.13637472    0.92714735   -1.76970735
     atom   56 type  2   force =     0.85085558   -0.65322620   -1.52475208
     atom   57 type  2   force =    -1.47841006    0.67100781   -0.84858148
     atom   58 type  2   force =    -0.56965325   -1.44772520   -1.27502193
     atom   59 type  2   force =     0.39537872    1.97509529    0.38712014
     atom   60 type  2   force =    -0.84413723   -1.47162920   -0.64728632
     atom   61 type  2   force =     0.15407066   -0.10784951    1.88542295
     atom   62 type  2   force =     0.33160167    0.72156756    1.35351686
     atom   63 type  2   force =     0.70601259    1.39771757    1.48480497
     atom   64 type  2   force =     1.34763880    1.07640608   -0.58967278
     atom   65 type  2   force =    -0.97277260   -1.10571137    1.25133791
     atom   66 type  2   force =    -0.92312028   -0.62310325   -1.69139471
     The ionic contribution  to forces
     atom    1 type  1   force =    -1.75329007    3.69829844    2.16201211
     atom    2 type  1   force =    -2.51188906   -2.33136748    1.46988724
     atom    3 type  1   force =     2.16129346    2.83716176    1.23918304
     atom    4 type  1   force =    -2.50395396    2.49533982    1.00716032
     atom    5 type  1   force =     0.58314009   -1.60565136   -1.33594102
     atom    6 type  1   force =     2.15504816    1.72413994    2.96581720
     atom    7 type  1   force =    -3.18253232    3.65554624    2.44507807
     atom    8 type  1   force =    -2.37874392    0.95796511   -2.13264326
     atom    9 type  1   force =     0.25372610   -2.92054519   -0.15438306
     atom   10 type  1   force =     0.07605463   -2.09238214    4.82954033
     atom   11 type  1   force =     3.25231335    1.34041691    1.06816667
     atom   12 type  1   force =     3.93500529   -3.53706642   -0.67972083
     atom   13 type  1   force =     0.39202805    1.37250244    2.94609773
     atom   14 type  1   force =     1.88501971    3.93254848   -1.62390234
     atom   15 type  1   force =    -0.67616851   -3.47129006    0.21855605
     atom   16 type  1   force =     2.59053899   -1.26678811   -0.13302052
     atom   17 type  1   force =     2.70000375    3.22157937   -1.40073179
     atom   18 type  1   force =    -0.52557826   -1.48959153   -0.11103729
     atom   19 type  1   force =    -2.85160205    2.87281905   -3.26920523
     atom   20 type  1   force =    -3.25420584   -2.24986366   -0.97311442
     atom   21 type  1   force =    -1.98486294   -0.76644834   -0.11856802
     atom   22 type  1   force =     2.29253998   -0.72491576   -0.14141120
     atom   23 type  1   force =    -2.63757857   -3.26246723   -3.39903637
     atom   24 type  1   force =     0.90666926   -0.52896390   -1.33603502
     atom   25 type  1   force =    -1.79436846    2.47675253    0.47801771
     atom   26 type  1   force =    -3.26527407   -2.32040330    1.34888913
     atom   27 type  1   force =    -0.53447290   -1.77424688   -1.79951939
     atom   28 type  1   force =     2.69151920   -2.31908495   -3.94977486
     atom   29 type  1   force =     1.41369314    1.64413470   -0.16394616
     atom   30 type  1   force =    -1.23054861    3.23789533   -3.54256338
     atom   31 type  1   force =     0.48742064   -1.35025384   -0.10796943
     atom   32 type  1   force =    -3.17799297    1.65793629    0.06794228
     atom   33 type  1   force =     0.55819293    3.80198067    4.09556521
     atom   34 type  1   force =     0.15104383   -1.64314862    2.92032271
     atom   35 type  1   force =     0.47468704    2.09166676   -0.57619631
     atom   36 type  1   force =     1.91180434   -1.87268681    1.27324755
     atom   37 type  1   force =     1.17899662    5.36046639   -0.40418579
     atom   38 type  1   force =     0.03656870    1.27328401    3.65173884
     atom   39 type  1   force =     2.27755568   -1.12895683   -0.41353419
     atom   40 type  1   force =    -1.03819239    0.30906263   -3.97676416
     atom   41 type  1   force =    -2.78742273   -2.01848543    0.84784314
     atom   42 type  1   force =     1.35910829   -4.69691905    2.23112557
     atom   43 type  1   force =    -1.13798807   -0.23379245   -1.78033223
     atom   44 type  1   force =    -4.12533426   -3.38865347    0.10125098
     atom   45 type  2   force =    -0.80027851   -0.75998514   13.29451031
     atom   46 type  2   force =     3.20206196   11.29689052   -6.88860442
     atom   47 type  2   force =    11.89161378    7.29458277   -7.24339682
     atom   48 type  2   force =    -8.90889170    5.32622748    4.58670063
     atom   49 type  2   force =     4.93426666   -0.12161310   12.41915900
     atom   50 type  2   force =     7.74044861   -7.12079800    3.09851036
     atom   51 type  2   force =    13.16661376    2.40796542    3.68772969
     atom   52 type  2   force =     0.33270419   -6.26979913   -6.65105855
     atom   53 type  2   force =     1.09234178    6.29712010  -14.50579447
     atom   54 type  2   force =    -8.95902174    7.84706436   -4.21547221
     atom   55 type  2   force =     2.42904150  -10.52082542   10.54737846
     atom   56 type  2   force =   -11.91680010   -5.99103112   -3.84549610
     atom   57 type  2   force =    -5.46034518   -5.81495593    9.99989172
     atom   58 type  2   force =    10.89036728   -1.24170897   -7.28874837
     atom   59 type  2   force =    -3.65252601   -0.28408739  -15.43316722
     atom   60 type  2   force =    -3.37091665   13.00474406    4.70111648
     atom   61 type  2   force =     1.70641308    7.87820656    7.48845643
     atom   62 type  2   force =     5.34338410   -5.74653106   -7.77878973
     atom   63 type  2   force =     0.00893367   10.90717330    0.53832115
     atom   64 type  2   force =    -4.60628207   -8.82437945   -8.09565287
     atom   65 type  2   force =     2.15412856  -13.78501558    0.30282394
     atom   66 type  2   force =    -9.58922825   -6.74676833    7.43767697
     The local contribution  to forces
     atom    1 type  1   force =     1.73488041   -3.67536913   -2.17471467
     atom    2 type  1   force =     2.47886800    2.33080625   -1.48072443
     atom    3 type  1   force =    -2.15703750   -2.81406066   -1.22188697
     atom    4 type  1   force =     2.45099811   -2.50471623   -0.98988809
     atom    5 type  1   force =    -0.63071108    1.55187010    1.33773951
     atom    6 type  1   force =    -2.14802133   -1.71325303   -2.85392485
     atom    7 type  1   force =     3.18041565   -3.66308562   -2.45704418
     atom    8 type  1   force =     2.36658081   -0.93939824    2.11012888
     atom    9 type  1   force =    -0.30578939    2.84439396    0.06249162
     atom   10 type  1   force =    -0.08259191    2.07455301   -4.79030609
     atom   11 type  1   force =    -3.23706870   -1.27858058   -1.05791085
     atom   12 type  1   force =    -3.94657576    3.54419627    0.68378595
     atom   13 type  1   force =    -0.41353756   -1.35184353   -2.92156297
     atom   14 type  1   force =    -1.89461863   -3.87037574    1.58173491
     atom   15 type  1   force =     0.69282871    3.44850443   -0.19519526
     atom   16 type  1   force =    -2.56229866    1.26128188    0.12456494
     atom   17 type  1   force =    -2.66917036   -3.20045174    1.42781773
     atom   18 type  1   force =     0.54166398    1.46020415    0.15811288
     atom   19 type  1   force =     2.84028422   -2.87113967    3.25491322
     atom   20 type  1   force =     3.22954317    2.21268677    0.95660736
     atom   21 type  1   force =     1.94746887    0.78861290    0.11382447
     atom   22 type  1   force =    -2.32061232    0.71174437    0.14937277
     atom   23 type  1   force =     2.63679551    3.23354216    3.36220555
     atom   24 type  1   force =    -0.83293967    0.53695263    1.30068989
     atom   25 type  1   force =     1.77613553   -2.42930998   -0.51026970
     atom   26 type  1   force =     3.21748880    2.30039732   -1.35137036
     atom   27 type  1   force =     0.50726445    1.79262861    1.80769193
     atom   28 type  1   force =    -2.68100538    2.31082278    3.93273451
     atom   29 type  1   force =    -1.30836973   -1.58704282    0.25894564
     atom   30 type  1   force =     1.23782089   -3.26836254    3.56218294
     atom   31 type  1   force =    -0.47881776    1.30409960    0.09853462
     atom   32 type  1   force =     3.14663933   -1.66308925   -0.07773331
     atom   33 type  1   force =    -0.54912563   -3.73942959   -4.01349928
     atom   34 type  1   force =    -0.16419760    1.53505387   -2.85854284
     atom   35 type  1   force =    -0.47415400   -2.07746186    0.58496723
     atom   36 type  1   force =    -1.92107769    1.90582018   -1.27196387
     atom   37 type  1   force =    -1.15730066   -5.28270232    0.40240347
     atom   38 type  1   force =    -0.03139920   -1.27689136   -3.62875212
     atom   39 type  1   force =    -2.25780569    1.13011336    0.42154756
     atom   40 type  1   force =     1.05136193   -0.29985264    3.98432536
     atom   41 type  1   force =     2.78388736    2.02049330   -0.82844400
     atom   42 type  1   force =    -1.36643584    4.69224520   -2.22528566
     atom   43 type  1   force =     1.13122630    0.23107807    1.74342766
     atom   44 type  1   force =     4.08122385    3.34728955   -0.10306159
     atom   45 type  2   force =     2.70666525    0.14229175  -12.76291594
     atom   46 type  2   force =    -2.84806890  -11.75968571    5.15367922
     atom   47 type  2   force =   -11.08227067   -6.20916444    5.48612013
     atom   48 type  2   force =    10.24574840   -6.56507042   -4.00728415
     atom   49 type  2   force =    -4.38048642    1.96046122  -12.75007300
     atom   50 type  2   force =    -9.51686675    7.06106731   -2.89669281
     atom   51 type  2   force =   -12.24877180   -4.09200914   -3.78227352
     atom   52 type  2   force =    -0.99964688    7.16613605    5.70386233
     atom   53 type  2   force =    -1.96898184   -6.19749076   12.87023015
     atom   54 type  2   force =    10.43140830   -7.18216367    5.44239108
     atom   55 type  2   force =    -2.24295337    9.63539876   -8.87510194
     atom   56 type  2   force =    11.06319815    6.64308322    5.33650626
     atom   57 type  2   force =     6.91081483    5.15306206   -9.16938272
     atom   58 type  2   force =   -10.32974406    2.59717862    8.48437390
     atom   59 type  2   force =     3.19724825   -1.60081403   14.96233002
     atom   60 type  2   force =     4.19990768  -11.57271883   -4.06398964
     atom   61 type  2   force =    -1.85508925   -7.74146728   -9.38945505
     atom   62 type  2   force =    -5.66079455    5.01716119    6.49884246
     atom   63 type  2   force =    -0.70012404  -12.29964177   -1.96175941
     atom   64 type  2   force =     3.31420892    7.80274124    8.63625612
     atom   65 type  2   force =    -1.24085698   14.83183069   -1.49706551
     atom   66 type  2   force =    10.48494205    7.36285914   -5.81752995
     The core correction contribution to forces
     atom    1 type  1   force =     0.00000000    0.00000000    0.00000000
     atom    2 type  1   force =     0.00000000    0.00000000    0.00000000
     atom    3 type  1   force =     0.00000000    0.00000000    0.00000000
     atom    4 type  1   force =     0.00000000    0.00000000    0.00000000
     atom    5 type  1   force =     0.00000000    0.00000000    0.00000000
     atom    6 type  1   force =     0.00000000    0.00000000    0.00000000
     atom    7 type  1   force =     0.00000000    0.00000000    0.00000000
     atom    8 type  1   force =     0.00000000    0.00000000    0.00000000
     atom    9 type  1   force =     0.00000000    0.00000000    0.00000000
     atom   10 type  1   force =     0.00000000    0.00000000    0.00000000
     atom   11 type  1   force =     0.00000000    0.00000000    0.00000000
     atom   12 type  1   force =     0.00000000    0.00000000    0.00000000
     atom   13 type  1   force =     0.00000000    0.00000000    0.00000000
     atom   14 type  1   force =     0.00000000    0.00000000    0.00000000
     atom   15 type  1   force =     0.00000000    0.00000000    0.00000000
     atom   16 type  1   force =     0.00000000    0.00000000    0.00000000
     atom   17 type  1   force =     0.00000000    0.00000000    0.00000000
     atom   18 type  1   force =     0.00000000    0.00000000    0.00000000
     atom   19 type  1   force =     0.00000000    0.00000000    0.00000000
     atom   20 type  1   force =     0.00000000    0.00000000    0.00000000
     atom   21 type  1   force =     0.00000000    0.00000000    0.00000000
     atom   22 type  1   force =     0.00000000    0.00000000    0.00000000
     atom   23 type  1   force =     0.00000000    0.00000000    0.00000000
     atom   24 type  1   force =     0.00000000    0.00000000    0.00000000
     atom   25 type  1   force =     0.00000000    0.00000000    0.00000000
     atom   26 type  1   force =     0.00000000    0.00000000    0.00000000
     atom   27 type  1   force =     0.00000000    0.00000000    0.00000000
     atom   28 type  1   force =     0.00000000    0.00000000    0.00000000
     atom   29 type  1   force =     0.00000000    0.00000000    0.00000000
     atom   30 type  1   force =     0.00000000    0.00000000    0.00000000
     atom   31 type  1   force =     0.00000000    0.00000000    0.00000000
     atom   32 type  1   force =     0.00000000    0.00000000    0.00000000
     atom   33 type  1   force =     0.00000000    0.00000000    0.00000000
     atom   34 type  1   force =     0.00000000    0.00000000    0.00000000
     atom   35 type  1   force =     0.00000000    0.00000000    0.00000000
     atom   36 type  1   force =     0.00000000    0.00000000    0.00000000
     atom   37 type  1   force =     0.00000000    0.00000000    0.00000000
     atom   38 type  1   force =     0.00000000    0.00000000    0.00000000
     atom   39 type  1   force =     0.00000000    0.00000000    0.00000000
     atom   40 type  1   force =     0.00000000    0.00000000    0.00000000
     atom   41 type  1   force =     0.00000000    0.00000000    0.00000000
     atom   42 type  1   force =     0.00000000    0.00000000    0.00000000
     atom   43 type  1   force =     0.00000000    0.00000000    0.00000000
     atom   44 type  1   force =     0.00000000    0.00000000    0.00000000
     atom   45 type  2   force =     0.02151874   -0.00708389    0.00539995
     atom   46 type  2   force =     0.00313206   -0.00511006   -0.01804397
     atom   47 type  2   force =     0.00834283    0.01165687   -0.01796557
     atom   48 type  2   force =     0.01621026   -0.01420591    0.00513207
     atom   49 type  2   force =     0.00456846    0.01884178   -0.00480448
     atom   50 type  2   force =    -0.01913738    0.00025791    0.00238807
     atom   51 type  2   force =     0.00879065   -0.01740543   -0.00076688
     atom   52 type  2   force =    -0.00720523    0.00959213   -0.00977426
     atom   53 type  2   force =    -0.01002157    0.00083909   -0.01737286
     atom   54 type  2   force =     0.01645124    0.00695869    0.01343443
     atom   55 type  2   force =     0.00112253   -0.00873604    0.01837312
     atom   56 type  2   force =    -0.00799913    0.00659196    0.01670160
     atom   57 type  2   force =     0.01501700   -0.00655471    0.00882304
     atom   58 type  2   force =     0.00522768    0.01458601    0.01325927
     atom   59 type  2   force =    -0.00398269   -0.02064201   -0.00342660
     atom   60 type  2   force =     0.00846757    0.01435484    0.00658619
     atom   61 type  2   force =    -0.00099024    0.00034581   -0.01843280
     atom   62 type  2   force =    -0.00322525   -0.00690737   -0.01440852
     atom   63 type  2   force =    -0.00730616   -0.01474839   -0.01573603
     atom   64 type  2   force =    -0.01479205   -0.01088447    0.00637328
     atom   65 type  2   force =     0.00990325    0.01329483   -0.01298073
     atom   66 type  2   force =     0.01091458    0.00691229    0.01653824
     The Hubbard contrib.    to forces
     atom    1 type  1   force =     0.00000000    0.00000000    0.00000000
     atom    2 type  1   force =     0.00000000    0.00000000    0.00000000
     atom    3 type  1   force =     0.00000000    0.00000000    0.00000000
     atom    4 type  1   force =     0.00000000    0.00000000    0.00000000
     atom    5 type  1   force =     0.00000000    0.00000000    0.00000000
     atom    6 type  1   force =     0.00000000    0.00000000    0.00000000
     atom    7 type  1   force =     0.00000000    0.00000000    0.00000000
     atom    8 type  1   force =     0.00000000    0.00000000    0.00000000
     atom    9 type  1   force =     0.00000000    0.00000000    0.00000000
     atom   10 type  1   force =     0.00000000    0.00000000    0.00000000
     atom   11 type  1   force =     0.00000000    0.00000000    0.00000000
     atom   12 type  1   force =     0.00000000    0.00000000    0.00000000
     atom   13 type  1   force =     0.00000000    0.00000000    0.00000000
     atom   14 type  1   force =     0.00000000    0.00000000    0.00000000
     atom   15 type  1   force =     0.00000000    0.00000000    0.00000000
     atom   16 type  1   force =     0.00000000    0.00000000    0.00000000
     atom   17 type  1   force =     0.00000000    0.00000000    0.00000000
     atom   18 type  1   force =     0.00000000    0.00000000    0.00000000
     atom   19 type  1   force =     0.00000000    0.00000000    0.00000000
     atom   20 type  1   force =     0.00000000    0.00000000    0.00000000
     atom   21 type  1   force =     0.00000000    0.00000000    0.00000000
     atom   22 type  1   force =     0.00000000    0.00000000    0.00000000
     atom   23 type  1   force =     0.00000000    0.00000000    0.00000000
     atom   24 type  1   force =     0.00000000    0.00000000    0.00000000
     atom   25 type  1   force =     0.00000000    0.00000000    0.00000000
     atom   26 type  1   force =     0.00000000    0.00000000    0.00000000
     atom   27 type  1   force =     0.00000000    0.00000000    0.00000000
     atom   28 type  1   force =     0.00000000    0.00000000    0.00000000
     atom   29 type  1   force =     0.00000000    0.00000000    0.00000000
     atom   30 type  1   force =     0.00000000    0.00000000    0.00000000
     atom   31 type  1   force =     0.00000000    0.00000000    0.00000000
     atom   32 type  1   force =     0.00000000    0.00000000    0.00000000
     atom   33 type  1   force =     0.00000000    0.00000000    0.00000000
     atom   34 type  1   force =     0.00000000    0.00000000    0.00000000
     atom   35 type  1   force =     0.00000000    0.00000000    0.00000000
     atom   36 type  1   force =     0.00000000    0.00000000    0.00000000
     atom   37 type  1   force =     0.00000000    0.00000000    0.00000000
     atom   38 type  1   force =     0.00000000    0.00000000    0.00000000
     atom   39 type  1   force =     0.00000000    0.00000000    0.00000000
     atom   40 type  1   force =     0.00000000    0.00000000    0.00000000
     atom   41 type  1   force =     0.00000000    0.00000000    0.00000000
     atom   42 type  1   force =     0.00000000    0.00000000    0.00000000
     atom   43 type  1   force =     0.00000000    0.00000000    0.00000000
     atom   44 type  1   force =     0.00000000    0.00000000    0.00000000
     atom   45 type  2   force =     0.00000000    0.00000000    0.00000000
     atom   46 type  2   force =     0.00000000    0.00000000    0.00000000
     atom   47 type  2   force =     0.00000000    0.00000000    0.00000000
     atom   48 type  2   force =     0.00000000    0.00000000    0.00000000
     atom   49 type  2   force =     0.00000000    0.00000000    0.00000000
     atom   50 type  2   force =     0.00000000    0.00000000    0.00000000
     atom   51 type  2   force =     0.00000000    0.00000000    0.00000000
     atom   52 type  2   force =     0.00000000    0.00000000    0.00000000
     atom   53 type  2   force =     0.00000000    0.00000000    0.00000000
     atom   54 type  2   force =     0.00000000    0.00000000    0.00000000
     atom   55 type  2   force =     0.00000000    0.00000000    0.00000000
     atom   56 type  2   force =     0.00000000    0.00000000    0.00000000
     atom   57 type  2   force =     0.00000000    0.00000000    0.00000000
     atom   58 type  2   force =     0.00000000    0.00000000    0.00000000
     atom   59 type  2   force =     0.00000000    0.00000000    0.00000000
     atom   60 type  2   force =     0.00000000    0.00000000    0.00000000
     atom   61 type  2   force =     0.00000000    0.00000000    0.00000000
     atom   62 type  2   force =     0.00000000    0.00000000    0.00000000
     atom   63 type  2   force =     0.00000000    0.00000000    0.00000000
     atom   64 type  2   force =     0.00000000    0.00000000    0.00000000
     atom   65 type  2   force =     0.00000000    0.00000000    0.00000000
     atom   66 type  2   force =     0.00000000    0.00000000    0.00000000
     The SCF correction term to forces
     atom    1 type  1   force =     0.00000464   -0.00000656   -0.00000116
     atom    2 type  1   force =    -0.00000519   -0.00000389   -0.00000182
     atom    3 type  1   force =    -0.00002864   -0.00002421   -0.00004887
     atom    4 type  1   force =     0.00003067   -0.00001400   -0.00003147
     atom    5 type  1   force =     0.00000498    0.00001514   -0.00000568
     atom    6 type  1   force =     0.00000171   -0.00000124   -0.00002182
     atom    7 type  1   force =     0.00000785   -0.00001627   -0.00000749
     atom    8 type  1   force =     0.00000318   -0.00000831    0.00000279
     atom    9 type  1   force =     0.00000387    0.00001606    0.00000064
     atom   10 type  1   force =     0.00000518    0.00001548   -0.00000895
     atom   11 type  1   force =    -0.00002692   -0.00001357    0.00000215
     atom   12 type  1   force =    -0.00002503    0.00001722    0.00001084
     atom   13 type  1   force =    -0.00000567   -0.00000744    0.00000285
     atom   14 type  1   force =    -0.00000034   -0.00001137    0.00001062
     atom   15 type  1   force =     0.00001274    0.00005002   -0.00003634
     atom   16 type  1   force =    -0.00002837    0.00000738   -0.00003138
     atom   17 type  1   force =    -0.00002623   -0.00002420   -0.00000820
     atom   18 type  1   force =     0.00001521    0.00001484   -0.00002219
     atom   19 type  1   force =     0.00001983   -0.00002011    0.00003142
     atom   20 type  1   force =     0.00001835    0.00003276    0.00000389
     atom   21 type  1   force =     0.00001208   -0.00000613    0.00001706
     atom   22 type  1   force =    -0.00000402    0.00000000    0.00000289
     atom   23 type  1   force =     0.00000510    0.00001746    0.00001629
     atom   24 type  1   force =     0.00000262    0.00000743    0.00000387
     atom   25 type  1   force =     0.00000862   -0.00004442    0.00001361
     atom   26 type  1   force =     0.00002978    0.00001163    0.00000589
     atom   27 type  1   force =    -0.00002064    0.00001516    0.00001117
     atom   28 type  1   force =    -0.00001113    0.00001193    0.00001385
     atom   29 type  1   force =     0.00002057   -0.00000460    0.00001137
     atom   30 type  1   force =     0.00000240   -0.00000820    0.00000191
     atom   31 type  1   force =    -0.00000656    0.00003334    0.00000165
     atom   32 type  1   force =     0.00005070    0.00001317    0.00000763
     atom   33 type  1   force =    -0.00000399   -0.00001810   -0.00002805
     atom   34 type  1   force =     0.00000045    0.00001533   -0.00002193
     atom   35 type  1   force =     0.00000854   -0.00003376   -0.00002648
     atom   36 type  1   force =    -0.00002882    0.00001994   -0.00004790
     atom   37 type  1   force =    -0.00000652   -0.00001812    0.00000460
     atom   38 type  1   force =    -0.00000183   -0.00000135   -0.00001258
     atom   39 type  1   force =    -0.00002925   -0.00000758    0.00000013
     atom   40 type  1   force =    -0.00000005   -0.00002225    0.00003096
     atom   41 type  1   force =    -0.00000879    0.00001085    0.00000220
     atom   42 type  1   force =    -0.00000488    0.00000845   -0.00000579
     atom   43 type  1   force =     0.00000374    0.00000309    0.00002496
     atom   44 type  1   force =     0.00002857    0.00002314    0.00001728
     atom   45 type  2   force =     0.00008263   -0.00008868    0.00001831
     atom   46 type  2   force =     0.00002492   -0.00009650   -0.00028301
     atom   47 type  2   force =     0.00003442    0.00004042   -0.00015729
     atom   48 type  2   force =     0.00005229   -0.00014484   -0.00000956
     atom   49 type  2   force =     0.00007910    0.00020541   -0.00003454
     atom   50 type  2   force =    -0.00019985    0.00009321    0.00009217
     atom   51 type  2   force =     0.00001832   -0.00013143    0.00005520
     atom   52 type  2   force =    -0.00009524    0.00007304   -0.00017964
     atom   53 type  2   force =    -0.00006867   -0.00000776   -0.00013457
     atom   54 type  2   force =     0.00005722    0.00003154    0.00004504
     atom   55 type  2   force =    -0.00005192   -0.00005908    0.00008605
     atom   56 type  2   force =    -0.00003737    0.00012840    0.00012167
     atom   57 type  2   force =     0.00012776   -0.00010428    0.00007200
     atom   58 type  2   force =    -0.00006919    0.00009942    0.00009581
     atom   59 type  2   force =     0.00001426   -0.00016076    0.00000409
     atom   60 type  2   force =     0.00012442    0.00023195    0.00006942
     atom   61 type  2   force =    -0.00003945   -0.00004909   -0.00025566
     atom   62 type  2   force =    -0.00004088   -0.00000454   -0.00023726
     atom   63 type  2   force =    -0.00001904   -0.00004586    0.00003895
     atom   64 type  2   force =    -0.00011676   -0.00010223    0.00012138
     atom   65 type  2   force =    -0.00003705    0.00005925   -0.00005908
     atom   66 type  2   force =     0.00015484    0.00010545    0.00020652

     Total force =     0.522232     Total SCF correction =     0.000929


     Computing stress (Cartesian axis) and pressure


     negative rho (up, down):  4.974E-01 0.000E+00
          total   stress  (Ry/bohr**3)                   (kbar)     P=       -3.01
  -0.00002059   0.00000024  -0.00000012           -3.03        0.04       -0.02
   0.00000024  -0.00002098   0.00000048            0.04       -3.09        0.07
  -0.00000012   0.00000048  -0.00001986           -0.02        0.07       -2.92


     init_run     :      7.57s CPU      7.95s WALL (       1 calls)
     electrons    :     74.82s CPU     79.99s WALL (       1 calls)
     forces       :      5.58s CPU      5.84s WALL (       1 calls)
     stress       :     17.44s CPU     17.76s WALL (       1 calls)

     Called by init_run:
     wfcinit      :      2.77s CPU      2.95s WALL (       1 calls)
     potinit      :      1.28s CPU      1.34s WALL (       1 calls)
     hinit0       :      1.06s CPU      1.09s WALL (       1 calls)

     Called by electrons:
     c_bands      :     50.31s CPU     53.03s WALL (      10 calls)
     sum_band     :     13.80s CPU     14.95s WALL (      10 calls)
     v_of_rho     :      6.43s CPU      6.97s WALL (      11 calls)
     newd         :      2.94s CPU      3.74s WALL (      11 calls)
     PAW_pot      :      1.06s CPU      1.06s WALL (      11 calls)
     mix_rho      :      1.03s CPU      1.11s WALL (      10 calls)

     Called by c_bands:
     init_us_2    :      0.66s CPU      0.69s WALL (      21 calls)
     init_us_2:cp :      0.66s CPU      0.69s WALL (      21 calls)
     regterg      :     49.39s CPU     52.10s WALL (      10 calls)

     Called by *egterg:
     rdiaghg      :      0.23s CPU      0.23s WALL (      32 calls)
     h_psi        :     44.14s CPU     46.51s WALL (      33 calls)
     s_psi        :      1.39s CPU      1.40s WALL (      33 calls)
     g_psi        :      0.14s CPU      0.15s WALL (      22 calls)

     Called by h_psi:
     h_psi:calbec :      1.38s CPU      1.40s WALL (      33 calls)
     vloc_psi     :     41.01s CPU     43.33s WALL (      33 calls)
     add_vuspsi   :      1.39s CPU      1.41s WALL (      33 calls)

     General routines
     calbec       :      2.08s CPU      2.10s WALL (      48 calls)
     fft          :      3.56s CPU      4.05s WALL (     119 calls)
     ffts         :      0.24s CPU      0.27s WALL (      10 calls)
     fftw         :     36.50s CPU     39.10s WALL (    2894 calls)

     Parallel routines

     PWSCF        :   1m45.53s CPU   1m51.73s WALL


   This run was terminated on:  21: 4: 3  27Mar2024            

=------------------------------------------------------------------------------=
   JOB DONE.
=------------------------------------------------------------------------------=
