
     Program PWSCF v.7.2 starts on 27Mar2024 at  5: 2:33 

     This program is part of the open-source Quantum ESPRESSO suite
     for quantum simulation of materials; please cite
         "P. Giannozzi et al., J. Phys.:Condens. Matter 21 395502 (2009);
         "P. Giannozzi et al., J. Phys.:Condens. Matter 29 465901 (2017);
         "P. Giannozzi et al., J. Chem. Phys. 152 154105 (2020);
          URL http://www.quantum-espresso.org", 
     in publications or presentations arising from this work. More details at
     http://www.quantum-espresso.org/quote

     Parallel version (MPI), running on    32 processors

     MPI processes distributed on     1 nodes
     170276 MiB available memory on the printing compute node when the environment starts

     Reading input from pw-wt-78.in
Warning: card &CELL ignored
Warning: card / ignored

     Current dimensions of program PWSCF are:
     Max number of different atomic species (ntypx) = 10
     Max number of k-points (npk) =  40000
     Max angular momentum in pseudopotentials (lmaxx) =  4
     file O.pbe-n-kjpaw_psl.0.1.UPF: wavefunction(s)  2P renormalized

     IMPORTANT: XC functional enforced from input :
     Exchange-correlation= PBE
                           (   1   4   3   4   0   0   0)
     Any further DFT definition will be discarded
     Please, verify this is what you really want


     gamma-point specific algorithms are used

     R & G space division:  proc/nbgrp/npool/nimage =      32
     Subspace diagonalization in iterative solution of the eigenvalue problem:
     a serial algorithm will be used


     Parallelization info
     --------------------
     sticks:   dense  smooth     PW     G-vecs:    dense   smooth      PW
     Min        1707    1707    426               301015   301015   37634
     Max        1710    1710    428               301034   301034   37648
     Sum       54693   54693  13673              9632757  9632757 1204469

     Using Slab Decomposition



     bravais-lattice index     =            0
     lattice parameter (alat)  =      75.7119  a.u.
     unit-cell volume          =  434002.3113 (a.u.)^3
     number of atoms/cell      =           66
     number of atomic types    =            2
     number of electrons       =       176.00
     number of Kohn-Sham states=           88
     kinetic-energy cutoff     =      30.0000  Ry
     charge density cutoff     =     120.0000  Ry
     scf convergence threshold =      1.0E-06
     mixing beta               =       0.5000
     number of iterations used =            8  plain     mixing
     Exchange-correlation= PBE
                           (   1   4   3   4   0   0   0)

     celldm(1)=  75.711877  celldm(2)=   0.000000  celldm(3)=   0.000000
     celldm(4)=   0.000000  celldm(5)=   0.000000  celldm(6)=   0.000000

     crystal axes: (cart. coord. in units of alat)
               a(1) = (   1.000000   0.000000   0.000000 )  
               a(2) = (   0.000000   1.000000   0.000000 )  
               a(3) = (   0.000000   0.000000   1.000000 )  

     reciprocal axes: (cart. coord. in units 2 pi/alat)
               b(1) = (  1.000000  0.000000  0.000000 )  
               b(2) = (  0.000000  1.000000  0.000000 )  
               b(3) = (  0.000000  0.000000  1.000000 )  


     PseudoPot. # 1 for H  read from file:
     /share/pfaendtnergroup/rverma7/QE_PP/H.pbe-rrkjus_psl.1.0.0.UPF
     MD5 check sum: f52b6d4d1c606e5624b1dc7b2218f220
     Pseudo is Ultrasoft, Zval =  1.0
     Generated using "atomic" code by A. Dal Corso  v.5.1
     Using radial grid of  929 points,  2 beta functions with: 
                l(1) =   0
                l(2) =   0
     Q(r) pseudized with 0 coefficients 


     PseudoPot. # 2 for O  read from file:
     /share/pfaendtnergroup/rverma7/QE_PP/O.pbe-n-kjpaw_psl.0.1.UPF
     MD5 check sum: 0234752ac141de4415c5fc33072bef88
     Pseudo is Projector augmented-wave + core cor, Zval =  6.0
     Generated using "atomic" code by A. Dal Corso  v.5.0.99 svn rev. 10869
     Shape of augmentation charge: BESSEL
     Using radial grid of 1095 points,  4 beta functions with: 
                l(1) =   0
                l(2) =   0
                l(3) =   1
                l(4) =   1
     Q(r) pseudized with 0 coefficients 


     atomic species   valence    mass     pseudopotential
        H              1.00     1.00800     H ( 1.00)
        O              6.00    15.99900     O ( 1.00)

     No symmetry found



   Cartesian axes

     site n.     atom                  positions (alat units)
         1           H   tau(   1) = (   0.2640958   0.1185324   0.4029203  )
         2           H   tau(   2) = (   0.2863347   0.1469362   0.3821790  )
         3           H   tau(   3) = (   0.2877824   0.2321977   0.3073006  )
         4           H   tau(   4) = (   0.3180582   0.2308499   0.2795707  )
         5           H   tau(   5) = (   0.2271309   0.3001373   0.3729440  )
         6           H   tau(   6) = (   0.2155747   0.3198802   0.3366779  )
         7           H   tau(   7) = (   0.3667540   0.2329465   0.3384001  )
         8           H   tau(   8) = (   0.3303132   0.2145514   0.3271684  )
         9           H   tau(   9) = (   0.3137152   0.3216773   0.4593036  )
        10           H   tau(  10) = (   0.3427181   0.2938475   0.4526894  )
        11           H   tau(  11) = (   0.3346562   0.3816299   0.3504306  )
        12           H   tau(  12) = (   0.3177087   0.3474105   0.3591913  )
        13           H   tau(  13) = (   0.4019219   0.2103582   0.3982029  )
        14           H   tau(  14) = (   0.4259578   0.2281542   0.4241607  )
        15           H   tau(  15) = (   0.3238238   0.1969549   0.4430301  )
        16           H   tau(  16) = (   0.2995632   0.2230875   0.4616997  )
        17           H   tau(  17) = (   0.3762885   0.2615500   0.4118058  )
        18           H   tau(  18) = (   0.3428928   0.2440534   0.4221640  )
        19           H   tau(  19) = (   0.2391364   0.2098839   0.3953326  )
        20           H   tau(  20) = (   0.2761263   0.2201173   0.4060402  )
        21           H   tau(  21) = (   0.3323849   0.2879820   0.3838013  )
        22           H   tau(  22) = (   0.3038562   0.2861350   0.3522526  )
        23           H   tau(  23) = (   0.2557844   0.2441033   0.4627980  )
        24           H   tau(  24) = (   0.2216648   0.2361163   0.4455510  )
        25           H   tau(  25) = (   0.2589043   0.3167103   0.4187196  )
        26           H   tau(  26) = (   0.2324972   0.2866592   0.4332210  )
        27           H   tau(  27) = (   0.1890428   0.2197679   0.3963809  )
        28           H   tau(  28) = (   0.1815550   0.1843255   0.4194434  )
        29           H   tau(  29) = (   0.3656558   0.1667291   0.4123799  )
        30           H   tau(  30) = (   0.3638587   0.1909647   0.3774866  )
        31           H   tau(  31) = (   0.2854861   0.1791589   0.3224011  )
        32           H   tau(  32) = (   0.2710595   0.1889430   0.3582429  )
        33           H   tau(  33) = (   0.1992263   0.2623736   0.3519531  )
        34           H   tau(  34) = (   0.2011731   0.2278048   0.3372769  )
        35           H   tau(  35) = (   0.2833645   0.2567827   0.5162112  )
        36           H   tau(  36) = (   0.3107700   0.2696868   0.4880070  )
        37           H   tau(  37) = (   0.2687383   0.2463497   0.3556221  )
        38           H   tau(  38) = (   0.2533383   0.2796456   0.3410458  )
        39           H   tau(  39) = (   0.3315113   0.1373019   0.4557844  )
        40           H   tau(  40) = (   0.3181081   0.1505553   0.4216398  )
        41           H   tau(  41) = (   0.4092350   0.2621740   0.3359291  )
        42           H   tau(  42) = (   0.3888681   0.2754524   0.2994634  )
        43           H   tau(  43) = (   0.3053288   0.3220517   0.4058155  )
        44           H   tau(  44) = (   0.2935729   0.3608386   0.4033695  )
        45           O   tau(  45) = (   0.2844627   0.1323100   0.4035442  )
        46           O   tau(  46) = (   0.3036066   0.2156745   0.2955697  )
        47           O   tau(  47) = (   0.2160988   0.2985399   0.3489080  )
        48           O   tau(  48) = (   0.3482591   0.2156496   0.3451142  )
        49           O   tau(  49) = (   0.3291152   0.3039810   0.4701610  )
        50           O   tau(  50) = (   0.3133408   0.3725446   0.3592163  )
        51           O   tau(  51) = (   0.4115063   0.2341695   0.4049919  )
        52           O   tau(  52) = (   0.3063522   0.2157993   0.4394609  )
        53           O   tau(  53) = (   0.3517035   0.2682391   0.4185948  )
        54           O   tau(  54) = (   0.2615999   0.2156745   0.3857482  )
        55           O   tau(  55) = (   0.3170598   0.3012355   0.3683514  )
        56           O   tau(  56) = (   0.2323225   0.2525396   0.4572819  )
        57           O   tau(  57) = (   0.2380382   0.3021340   0.4134531  )
        58           O   tau(  58) = (   0.1993760   0.2020467   0.4123799  )
        59           O   tau(  59) = (   0.3801572   0.1810308   0.3957569  )
        60           O   tau(  60) = (   0.2780981   0.1679022   0.3439161  )
        61           O   tau(  61) = (   0.1920130   0.2385873   0.3568701  )
        62           O   tau(  62) = (   0.2962436   0.2495944   0.4957195  )
        63           O   tau(  63) = (   0.2740796   0.2633221   0.3377262  )
        64           O   tau(  64) = (   0.3355048   0.1563459   0.4397105  )
        65           O   tau(  65) = (   0.3948833   0.2554100   0.3148384  )
        66           O   tau(  66) = (   0.2972170   0.3412455   0.4189193  )

     number of k points=     1
                       cart. coord. in units 2pi/alat
        k(    1) = (   0.0000000   0.0000000   0.0000000), wk =   2.0000000

     Dense  grid:  4816379 G-vectors     FFT dimensions: ( 270, 270, 270)

     Estimated max dynamical RAM per process >     612.29 MB

     Estimated total dynamical RAM >      19.13 GB

     Check: negative core charge=   -0.000006

     Initial potential from superposition of free atoms

     starting charge     175.9995, renormalised to     176.0000

     negative rho (up, down):  3.671E-01 0.000E+00
     Starting wfcs are  132 randomized atomic wfcs
     Checking if some PAW data can be deallocated... 

     total cpu time spent up to now is        8.7 secs

     Self-consistent Calculation

     iteration #  1     ecut=    30.00 Ry     beta= 0.50
     Davidson diagonalization with overlap
     ethr =  1.00E-02,  avg # of iterations =  2.0

     negative rho (up, down):  4.321E-01 0.000E+00

     total cpu time spent up to now is       17.9 secs

     total energy              =    -965.84800407 Ry
     estimated scf accuracy    <       6.76907900 Ry

     iteration #  2     ecut=    30.00 Ry     beta= 0.50
     Davidson diagonalization with overlap
     ethr =  3.85E-03,  avg # of iterations =  2.0

     negative rho (up, down):  4.513E-01 0.000E+00

     total cpu time spent up to now is       28.7 secs

     total energy              =    -967.73187569 Ry
     estimated scf accuracy    <       0.96056229 Ry

     iteration #  3     ecut=    30.00 Ry     beta= 0.50
     Davidson diagonalization with overlap
     ethr =  5.46E-04,  avg # of iterations =  2.0

     negative rho (up, down):  4.932E-01 0.000E+00

     total cpu time spent up to now is       38.0 secs

     total energy              =    -967.78134577 Ry
     estimated scf accuracy    <       0.12736809 Ry

     iteration #  4     ecut=    30.00 Ry     beta= 0.50
     Davidson diagonalization with overlap
     ethr =  7.24E-05,  avg # of iterations =  3.0

     negative rho (up, down):  4.941E-01 0.000E+00

     total cpu time spent up to now is       47.6 secs

     total energy              =    -967.80466224 Ry
     estimated scf accuracy    <       0.03628695 Ry

     iteration #  5     ecut=    30.00 Ry     beta= 0.50
     Davidson diagonalization with overlap
     ethr =  2.06E-05,  avg # of iterations =  2.0

     negative rho (up, down):  4.931E-01 0.000E+00

     total cpu time spent up to now is       55.4 secs

     total energy              =    -967.80489355 Ry
     estimated scf accuracy    <       0.00737330 Ry

     iteration #  6     ecut=    30.00 Ry     beta= 0.50
     Davidson diagonalization with overlap
     ethr =  4.19E-06,  avg # of iterations =  2.0

     negative rho (up, down):  4.924E-01 0.000E+00

     total cpu time spent up to now is       63.5 secs

     total energy              =    -967.80511685 Ry
     estimated scf accuracy    <       0.00150325 Ry

     iteration #  7     ecut=    30.00 Ry     beta= 0.50
     Davidson diagonalization with overlap
     ethr =  8.54E-07,  avg # of iterations =  2.0

     negative rho (up, down):  4.921E-01 0.000E+00

     total cpu time spent up to now is       72.1 secs

     total energy              =    -967.80526182 Ry
     estimated scf accuracy    <       0.00024391 Ry

     iteration #  8     ecut=    30.00 Ry     beta= 0.50
     Davidson diagonalization with overlap
     ethr =  1.39E-07,  avg # of iterations =  2.0

     negative rho (up, down):  4.921E-01 0.000E+00

     total cpu time spent up to now is       81.3 secs

     total energy              =    -967.80530966 Ry
     estimated scf accuracy    <       0.00002219 Ry

     iteration #  9     ecut=    30.00 Ry     beta= 0.50
     Davidson diagonalization with overlap
     ethr =  1.26E-08,  avg # of iterations =  3.0

     negative rho (up, down):  4.921E-01 0.000E+00

     total cpu time spent up to now is       90.5 secs

     total energy              =    -967.80531189 Ry
     estimated scf accuracy    <       0.00000807 Ry

     iteration # 10     ecut=    30.00 Ry     beta= 0.50
     Davidson diagonalization with overlap
     ethr =  4.59E-09,  avg # of iterations =  2.0

     negative rho (up, down):  4.922E-01 0.000E+00

     total cpu time spent up to now is       98.6 secs

     total energy              =    -967.80531228 Ry
     estimated scf accuracy    <       0.00000114 Ry

     iteration # 11     ecut=    30.00 Ry     beta= 0.50
     Davidson diagonalization with overlap
     ethr =  6.45E-10,  avg # of iterations =  2.0

     negative rho (up, down):  4.922E-01 0.000E+00

     total cpu time spent up to now is      108.0 secs

     End of self-consistent calculation

          k = 0.0000 0.0000 0.0000 (602235 PWs)   bands (ev):

   -26.0722 -25.9723 -25.6859 -25.6019 -25.5106 -25.3980 -25.3772 -25.1557
   -25.1369 -25.0525 -25.0266 -24.9596 -24.7290 -24.7070 -24.6492 -24.4565
   -24.1998 -24.0638 -24.0105 -23.9187 -23.8273 -23.5810 -14.2272 -13.8379
   -13.6873 -13.6144 -13.4395 -13.3226 -13.1883 -13.1675 -12.9746 -12.9288
   -12.8397 -12.7820 -12.6073 -12.5684 -12.4821 -12.4425 -12.3310 -12.1781
   -12.1602 -11.9551 -11.8522 -11.6339 -11.0607 -10.8840 -10.8576 -10.4122
   -10.2022 -10.0008  -9.9529  -9.8952  -9.6742  -9.5530  -9.4889  -9.4611
    -9.2657  -9.2124  -9.0677  -8.9605  -8.7821  -8.7062  -8.5255  -8.4420
    -8.2513  -8.1664  -8.0623  -7.7865  -7.7755  -7.7479  -7.6571  -7.4466
    -7.4053  -7.3183  -7.3034  -7.2619  -7.2399  -7.2037  -7.1806  -7.0681
    -6.9064  -6.8216  -6.7288  -6.6189  -6.5916  -6.4865  -6.3444  -6.1746

     highest occupied level (ev):    -6.1746

!    total energy              =    -967.80531256 Ry
     estimated scf accuracy    <       0.00000009 Ry

     The total energy is the sum of the following terms:
     one-electron contribution =   -6095.23170645 Ry
     hartree contribution      =    3082.63679144 Ry
     xc contribution           =    -193.71799562 Ry
     ewald contribution        =    2447.81339653 Ry
     one-center paw contrib.   =    -209.30579845 Ry

     convergence has been achieved in  11 iterations

     negative rho (up, down):  4.922E-01 0.000E+00

     Forces acting on atoms (cartesian axes, Ry/au):

     atom    1 type  1   force =     0.01592510    0.01852607   -0.01149179
     atom    2 type  1   force =    -0.02701703   -0.04935065    0.02427110
     atom    3 type  1   force =     0.02772042   -0.00750243   -0.02357117
     atom    4 type  1   force =    -0.06423620   -0.06343705    0.06447308
     atom    5 type  1   force =    -0.02931233    0.02646314   -0.01256168
     atom    6 type  1   force =     0.00236881   -0.00727364    0.02282665
     atom    7 type  1   force =    -0.07201294   -0.05447646   -0.00466400
     atom    8 type  1   force =     0.03785189    0.00345578    0.01599806
     atom    9 type  1   force =     0.05115710   -0.05000544    0.01697564
     atom   10 type  1   force =     0.00916438   -0.01071575   -0.03530821
     atom   11 type  1   force =    -0.02292088   -0.00369471    0.01190531
     atom   12 type  1   force =    -0.00596321    0.02797966   -0.00030464
     atom   13 type  1   force =     0.00138173    0.03508852    0.03063977
     atom   14 type  1   force =    -0.01131722    0.01437455   -0.01695513
     atom   15 type  1   force =    -0.05777759    0.02898706   -0.00221787
     atom   16 type  1   force =     0.00566799    0.01128985    0.03251919
     atom   17 type  1   force =    -0.04885193    0.01276380    0.02153021
     atom   18 type  1   force =    -0.00397151    0.07209781   -0.00200685
     atom   19 type  1   force =     0.01115329   -0.00285587   -0.01022558
     atom   20 type  1   force =     0.00177022   -0.01782620   -0.01907523
     atom   21 type  1   force =    -0.01992212   -0.00441564   -0.02604991
     atom   22 type  1   force =     0.01735229    0.00456889    0.04055707
     atom   23 type  1   force =    -0.05518672    0.02770724   -0.00468037
     atom   24 type  1   force =    -0.07224408   -0.11816406   -0.07680377
     atom   25 type  1   force =    -0.05004684   -0.03293312   -0.00515695
     atom   26 type  1   force =     0.02580741    0.01707730   -0.03267707
     atom   27 type  1   force =     0.01426488   -0.05463793    0.01876420
     atom   28 type  1   force =     0.06547259    0.07718054   -0.03589148
     atom   29 type  1   force =     0.04816010    0.04905172   -0.04424213
     atom   30 type  1   force =     0.03500758   -0.02962030    0.03427644
     atom   31 type  1   force =    -0.00300004   -0.03940465    0.04095763
     atom   32 type  1   force =     0.01725164   -0.05679057   -0.02208102
     atom   33 type  1   force =    -0.02057260   -0.01177372    0.01475562
     atom   34 type  1   force =     0.00276230   -0.02968664   -0.01028984
     atom   35 type  1   force =     0.03205546   -0.01174034   -0.04829535
     atom   36 type  1   force =    -0.02665365   -0.00630610    0.01001849
     atom   37 type  1   force =     0.00804465    0.00354639    0.00460063
     atom   38 type  1   force =     0.05085242   -0.04599007   -0.02827826
     atom   39 type  1   force =     0.01513016    0.04060594   -0.02768621
     atom   40 type  1   force =     0.01099430   -0.00482958    0.03979680
     atom   41 type  1   force =    -0.05551405   -0.00161402   -0.09695206
     atom   42 type  1   force =     0.03474090   -0.05644312    0.07784506
     atom   43 type  1   force =     0.00281861    0.00729154   -0.03728237
     atom   44 type  1   force =     0.02385931   -0.04163544    0.01788879
     atom   45 type  2   force =     0.01312737    0.03218374   -0.03842179
     atom   46 type  2   force =     0.01931458    0.08622331   -0.05030998
     atom   47 type  2   force =     0.04073154    0.00277381    0.02782265
     atom   48 type  2   force =     0.04283263    0.03586278    0.00862449
     atom   49 type  2   force =    -0.06428604    0.05569598    0.03128267
     atom   50 type  2   force =     0.02744614   -0.03368275   -0.01637876
     atom   51 type  2   force =     0.01420368   -0.01576277   -0.00119585
     atom   52 type  2   force =     0.04880714   -0.03367630   -0.03684126
     atom   53 type  2   force =     0.06312497   -0.08908953   -0.02757256
     atom   54 type  2   force =    -0.00418658    0.02077313    0.03438170
     atom   55 type  2   force =     0.02398481    0.00659004   -0.00283169
     atom   56 type  2   force =     0.11358349    0.08895357    0.09953909
     atom   57 type  2   force =     0.02880182    0.02869336    0.00481507
     atom   58 type  2   force =    -0.07495263   -0.01809754    0.01327084
     atom   59 type  2   force =    -0.08730171   -0.03395943   -0.02382516
     atom   60 type  2   force =    -0.00885735    0.07466982   -0.01277366
     atom   61 type  2   force =    -0.00580676    0.03169304   -0.00392221
     atom   62 type  2   force =    -0.01310791    0.03059141    0.03271814
     atom   63 type  2   force =    -0.06962890    0.02264116    0.00223295
     atom   64 type  2   force =    -0.02692902   -0.05555466   -0.00072835
     atom   65 type  2   force =     0.03509781    0.06513000    0.02637051
     atom   66 type  2   force =    -0.03821367    0.03241554    0.02789234
     The non-local contrib.  to forces
     atom    1 type  1   force =     0.08728935    0.06099539    0.00012785
     atom    2 type  1   force =    -0.00908342   -0.04958296    0.07068151
     atom    3 type  1   force =     0.05670769   -0.05630232   -0.04245534
     atom    4 type  1   force =    -0.04629183   -0.04508310    0.05094616
     atom    5 type  1   force =    -0.03065743   -0.00153598   -0.07004367
     atom    6 type  1   force =     0.00399789   -0.09160720    0.05570112
     atom    7 type  1   force =    -0.05919006   -0.05341908    0.01900256
     atom    8 type  1   force =     0.06532732    0.00656094    0.06215071
     atom    9 type  1   force =     0.05354838   -0.06252384    0.03480546
     atom   10 type  1   force =    -0.06333126    0.04800285    0.07680782
     atom   11 type  1   force =    -0.08785998   -0.04028451    0.03661245
     atom   12 type  1   force =    -0.01331324    0.09267707   -0.00088607
     atom   13 type  1   force =     0.02444478    0.06227364    0.01995132
     atom   14 type  1   force =    -0.06108339    0.02363835   -0.08004362
     atom   15 type  1   force =    -0.05818948    0.06202761   -0.01001270
     atom   16 type  1   force =     0.03144350   -0.03435631   -0.09989510
     atom   17 type  1   force =    -0.07589133    0.02002828    0.02068433
     atom   18 type  1   force =     0.03107553    0.08051811   -0.01220717
     atom   19 type  1   force =     0.08910456    0.02380445   -0.03605922
     atom   20 type  1   force =    -0.05653715   -0.01710842   -0.07543392
     atom   21 type  1   force =    -0.05587898    0.04561319   -0.05687092
     atom   22 type  1   force =     0.04435606    0.04794409    0.05504213
     atom   23 type  1   force =    -0.08616838    0.02750043   -0.02283549
     atom   24 type  1   force =     0.06898033    0.09917180    0.07163850
     atom   25 type  1   force =    -0.06747452   -0.04917845   -0.01534611
     atom   26 type  1   force =     0.02091809    0.05290075   -0.06642361
     atom   27 type  1   force =     0.03072524   -0.06007164    0.05336592
     atom   28 type  1   force =     0.05622590    0.05933820   -0.02472798
     atom   29 type  1   force =     0.04178799    0.04496872   -0.05142345
     atom   30 type  1   force =     0.04730980   -0.03056804    0.05665856
     atom   31 type  1   force =    -0.02764100   -0.04019572    0.08155616
     atom   32 type  1   force =     0.02077888   -0.05966417   -0.04275648
     atom   33 type  1   force =    -0.02475630   -0.08795701    0.01719809
     atom   34 type  1   force =    -0.04210370    0.05164408    0.09199723
     atom   35 type  1   force =     0.05018459   -0.02519019   -0.07892379
     atom   36 type  1   force =    -0.04816336   -0.06361825    0.02677511
     atom   37 type  1   force =     0.01936805    0.06509999   -0.06782394
     atom   38 type  1   force =     0.05823050   -0.04719852   -0.00819640
     atom   39 type  1   force =     0.01447048    0.07319868   -0.06300861
     atom   40 type  1   force =     0.06026274    0.01923417    0.06332234
     atom   41 type  1   force =    -0.04531264   -0.01622769   -0.06759647
     atom   42 type  1   force =     0.02203560   -0.06431503    0.05471829
     atom   43 type  1   force =    -0.03502677    0.08467222    0.05405768
     atom   44 type  1   force =     0.01410766   -0.07774714    0.05783270
     atom   45 type  2   force =    -1.34005887   -0.04071903   -1.32760085
     atom   46 type  2   force =     0.03422936    2.11730842   -0.20676859
     atom   47 type  2   force =     0.74323169    1.54680211    0.34691036
     atom   48 type  2   force =     0.08013841    0.93769402   -1.40623179
     atom   49 type  2   force =    -0.26465561    0.29240089   -1.86129701
     atom   50 type  2   force =     1.91023556   -0.98279412   -0.60934451
     atom   51 type  2   force =     0.48804494   -1.50215625    1.06612018
     atom   52 type  2   force =     0.57396751   -0.58737341    1.60514698
     atom   53 type  2   force =     0.84515776   -1.71962645   -0.23876546
     atom   54 type  2   force =    -0.47597921   -0.08357265    1.64219227
     atom   55 type  2   force =     0.21136284   -1.55427059    0.05441216
     atom   56 type  2   force =     0.79827898   -1.77913035   -0.73250487
     atom   57 type  2   force =     0.90225506   -0.06587146    1.25303127
     atom   58 type  2   force =    -1.87095278   -0.09300779   -0.45480790
     atom   59 type  2   force =    -1.73352117   -0.03780818    0.03034382
     atom   60 type  2   force =     0.19314569    1.92574726   -0.55215205
     atom   61 type  2   force =     1.16093545    0.56807841   -1.60300013
     atom   62 type  2   force =    -0.19394436    1.62798009    0.90339756
     atom   63 type  2   force =    -1.36644646   -0.12661936    1.19902047
     atom   64 type  2   force =    -1.22150420   -1.56057664   -0.02699697
     atom   65 type  2   force =     0.47591066    2.11554850    0.49646533
     atom   66 type  2   force =     0.13174951   -0.05142455   -1.87464939
     The ionic contribution  to forces
     atom    1 type  1   force =    -3.65441292   -4.33611784    0.26234553
     atom    2 type  1   force =     0.01345302   -1.22056914   -2.23928619
     atom    3 type  1   force =    -2.13889168    1.41846629   -1.74923263
     atom    4 type  1   force =     1.93559670    1.51440647   -4.59205768
     atom    5 type  1   force =    -0.91883704    1.91565912    1.37903353
     atom    6 type  1   force =    -1.68929521    4.68479787   -3.11536132
     atom    7 type  1   force =     3.17165558    1.32802082   -1.79952677
     atom    8 type  1   force =    -0.58583542   -1.03785199   -3.31060315
     atom    9 type  1   force =    -1.17999089    3.81925792    1.13014213
     atom   10 type  1   force =     3.36816050    0.29813762   -0.13750276
     atom   11 type  1   force =     3.62991121    3.33591397   -2.02171080
     atom   12 type  1   force =     1.18639760   -0.34114770   -1.41535761
     atom   13 type  1   force =     2.23933282   -2.21411974   -0.43770514
     atom   14 type  1   force =     4.45489092   -0.77860994    3.49174899
     atom   15 type  1   force =     2.39455419   -2.56484504    2.19845720
     atom   16 type  1   force =    -0.80944137   -0.28940842    4.61447960
     atom   17 type  1   force =     4.35157943    0.61754967   -0.00333048
     atom   18 type  1   force =     0.56203049   -2.32079811    1.23664081
     atom   19 type  1   force =    -3.68876056   -1.88725396    1.11294533
     atom   20 type  1   force =     0.91589058   -0.13317750    2.48261140
     atom   21 type  1   force =     2.89172231   -0.02667503    0.82884481
     atom   22 type  1   force =    -0.40232154    0.11635989   -3.08234892
     atom   23 type  1   force =     1.14584085   -1.06573543    2.68337870
     atom   24 type  1   force =    -3.74589884   -2.85217656    0.05877163
     atom   25 type  1   force =     0.53964607    3.27440760    1.48247661
     atom   26 type  1   force =    -2.48856569    0.16412238    3.11660884
     atom   27 type  1   force =    -3.85458400    1.01414041   -0.92493429
     atom   28 type  1   force =    -4.07422088   -3.40381900    1.52760575
     atom   29 type  1   force =     0.78990517   -3.31442758    1.77334222
     atom   30 type  1   force =     0.07986762   -0.93772582   -2.12388275
     atom   31 type  1   force =     0.28214782   -1.01325123   -4.41618949
     atom   32 type  1   force =    -1.41152505   -0.17372223   -0.23044871
     atom   33 type  1   force =    -2.03611285    2.47604648   -1.64071482
     atom   34 type  1   force =    -0.90627930   -2.34586108   -4.54362201
     atom   35 type  1   force =    -1.98198777    0.97004315    5.27979568
     atom   36 type  1   force =     1.74775159    2.20167925    2.04399249
     atom   37 type  1   force =    -1.16282119   -1.55223394    0.48272647
     atom   38 type  1   force =    -2.38033203    2.46231346   -1.86097687
     atom   39 type  1   force =     0.20987977   -4.43993025    3.75107470
     atom   40 type  1   force =    -1.02713003   -2.69567995   -0.97487606
     atom   41 type  1   force =     3.77319366    1.42054517    1.17637609
     atom   42 type  1   force =     0.70825389    3.12433149   -3.54590653
     atom   43 type  1   force =     1.24446521   -0.25057096   -0.74847378
     atom   44 type  1   force =    -0.87358941    5.05113110   -1.00870873
     atom   45 type  2   force =    -1.63732267  -15.84499725    3.76831671
     atom   46 type  2   force =     0.13420523   -6.78601898  -17.40482696
     atom   47 type  2   force =   -12.71366816    8.23218279   -8.76228688
     atom   48 type  2   force =     7.66218199   -6.15682377   -5.70686956
     atom   49 type  2   force =     6.15863784    9.37466439   15.91144288
     atom   50 type  2   force =    -0.77611320   16.12482136   -4.94226677
     atom   51 type  2   force =    15.91863710    3.88383952    1.01847365
     atom   52 type  2   force =     0.37844561   -4.40416949    6.30219240
     atom   53 type  2   force =     9.42385070    7.25313600    4.66384033
     atom   54 type  2   force =    -4.85838253   -4.99215648   -2.89357289
     atom   55 type  2   force =     5.34750309   11.28199705   -6.79978402
     atom   56 type  2   force =   -11.71251856    3.90908998   13.96144528
     atom   57 type  2   force =   -11.53834118   10.42070829    2.79669681
     atom   58 type  2   force =   -11.66958941   -8.51779366    5.72694596
     atom   59 type  2   force =    14.24484213  -11.27882460   -0.15492332
     atom   60 type  2   force =    -3.85995019  -16.40479817   -8.96486436
     atom   61 type  2   force =   -17.46396919   -3.01679868   -4.11906463
     atom   62 type  2   force =    -0.07273291   -3.03936020   16.08423748
     atom   63 type  2   force =    -1.25430064    4.40357540  -14.58363769
     atom   64 type  2   force =     7.49528182  -10.59042796    9.78390408
     atom   65 type  2   force =    10.88073654    0.54302003  -10.75319400
     atom   66 type  2   force =    -0.71272677   15.59351275    8.87715451
     The local contribution  to forces
     atom    1 type  1   force =     3.58303863    4.29375351   -0.27391260
     atom    2 type  1   force =    -0.03141389    1.22088958    2.19293173
     atom    3 type  1   force =     2.10988530   -1.36958779    1.76816271
     atom    4 type  1   force =    -1.95357603   -1.53268401    4.60564291
     atom    5 type  1   force =     0.92014247   -1.88756624   -1.32150028
     atom    6 type  1   force =     1.68763273   -4.60038350    3.08254634
     atom    7 type  1   force =    -3.18451340   -1.32900085    1.77591691
     atom    8 type  1   force =     0.55833634    1.03483013    3.26450866
     atom    9 type  1   force =     1.17758053   -3.80665316   -1.14791396
     atom   10 type  1   force =    -3.29569945   -0.35675964    0.02545543
     atom   11 type  1   force =    -3.56501157   -3.29922402    1.99705873
     atom   12 type  1   force =    -1.17908100    0.27655547    1.41599161
     atom   13 type  1   force =    -2.26242454    2.18703047    0.44844642
     atom   14 type  1   force =    -4.40516003    0.76944134   -3.42862005
     atom   15 type  1   force =    -2.39417566    2.53190028   -2.19061498
     atom   16 type  1   force =     0.78364326    0.33514543   -4.48202179
     atom   17 type  1   force =    -4.32455993   -0.62473059    0.00422839
     atom   18 type  1   force =    -0.59710690    2.31246107   -1.22638578
     atom   19 type  1   force =     3.61077593    1.86068324   -1.08705391
     atom   20 type  1   force =    -0.85761011    0.13254678   -2.42619679
     atom   21 type  1   force =    -2.85579432   -0.02326162   -0.79797426
     atom   22 type  1   force =     0.37529046   -0.15964546    3.06791501
     atom   23 type  1   force =    -1.11489502    1.06603538   -2.66517292
     atom   24 type  1   force =     3.60464883    2.63494079   -0.20715841
     atom   25 type  1   force =    -0.52225806   -3.25807196   -1.47223822
     atom   26 type  1   force =     2.49342253   -0.19985197   -3.08281957
     atom   27 type  1   force =     3.83810515   -1.00861660    0.89038401
     atom   28 type  1   force =     4.08345533    3.42176480   -1.53872163
     atom   29 type  1   force =    -0.78356022    3.31860905   -1.76611229
     atom   30 type  1   force =    -0.09219384    0.93876389    2.10155619
     atom   31 type  1   force =    -0.25753352    1.01412329    4.37565258
     atom   32 type  1   force =     1.40797713    0.17666813    0.25116871
     atom   33 type  1   force =     2.04025921   -2.39977962    1.63833225
     atom   34 type  1   force =     0.95110499    2.26462681    4.44140600
     atom   35 type  1   force =     1.96384042   -0.95650987   -5.24913115
     atom   36 type  1   force =    -1.72627211   -2.14428590   -2.06069776
     atom   37 type  1   force =     1.15147672    1.49077631   -0.41025893
     atom   38 type  1   force =     2.37293074   -2.46101727    1.84094404
     atom   39 type  1   force =    -0.20924393    4.40744822   -3.71571629
     atom   40 type  1   force =     0.97784032    2.67171218    0.95140917
     atom   41 type  1   force =    -3.78341419   -1.40583733   -1.20567820
     atom   42 type  1   force =    -0.69557157   -3.11636384    3.56908021
     atom   43 type  1   force =    -1.20665111    0.17329572    0.65719435
     atom   44 type  1   force =     0.88331605   -5.01492688    0.96882236
     atom   45 type  2   force =     2.97634465   15.91716589   -2.49257875
     atom   46 type  2   force =    -0.14859910    4.77664802   17.55694008
     atom   47 type  2   force =    12.01868493   -9.75954867    8.44596759
     atom   48 type  2   force =    -7.69802953    5.26406049    7.10747543
     atom   49 type  2   force =    -5.96119860   -9.60766615  -14.03643653
     atom   50 type  2   force =    -1.08727253  -15.18494035    5.52842992
     atom   51 type  2   force =   -16.38670523   -2.41210917   -2.07484156
     atom   52 type  2   force =    -0.89741720    4.95157709   -7.92854724
     atom   53 type  2   force =   -10.19790871   -5.63959197   -4.45486756
     atom   54 type  2   force =     5.32581648    5.09563267    1.30182713
     atom   55 type  2   force =    -5.53241842   -9.73708062    6.74345227
     atom   56 type  2   force =    11.03725439   -2.05827183  -13.13623836
     atom   57 type  2   force =    10.67290671  -10.32622940   -4.03240118
     atom   58 type  2   force =    13.44564168    8.59060791   -5.26347840
     atom   59 type  2   force =   -12.61570577   11.28175926    0.10102747
     atom   60 type  2   force =     3.65939150   14.57231167    9.49852687
     atom   61 type  2   force =    16.30842252    2.48522621    5.70287850
     atom   62 type  2   force =     0.25226163    1.45840286  -16.94473915
     atom   63 type  2   force =     2.53740985   -4.25550446   13.39759069
     atom   64 type  2   force =    -6.31245436   12.07877373   -9.75692744
     atom   65 type  2   force =   -11.31643856   -2.57053947   10.28811308
     atom   66 type  2   force =     0.54341480  -15.50922793   -6.99281234
     The core correction contribution to forces
     atom    1 type  1   force =     0.00000000    0.00000000    0.00000000
     atom    2 type  1   force =     0.00000000    0.00000000    0.00000000
     atom    3 type  1   force =     0.00000000    0.00000000    0.00000000
     atom    4 type  1   force =     0.00000000    0.00000000    0.00000000
     atom    5 type  1   force =     0.00000000    0.00000000    0.00000000
     atom    6 type  1   force =     0.00000000    0.00000000    0.00000000
     atom    7 type  1   force =     0.00000000    0.00000000    0.00000000
     atom    8 type  1   force =     0.00000000    0.00000000    0.00000000
     atom    9 type  1   force =     0.00000000    0.00000000    0.00000000
     atom   10 type  1   force =     0.00000000    0.00000000    0.00000000
     atom   11 type  1   force =     0.00000000    0.00000000    0.00000000
     atom   12 type  1   force =     0.00000000    0.00000000    0.00000000
     atom   13 type  1   force =     0.00000000    0.00000000    0.00000000
     atom   14 type  1   force =     0.00000000    0.00000000    0.00000000
     atom   15 type  1   force =     0.00000000    0.00000000    0.00000000
     atom   16 type  1   force =     0.00000000    0.00000000    0.00000000
     atom   17 type  1   force =     0.00000000    0.00000000    0.00000000
     atom   18 type  1   force =     0.00000000    0.00000000    0.00000000
     atom   19 type  1   force =     0.00000000    0.00000000    0.00000000
     atom   20 type  1   force =     0.00000000    0.00000000    0.00000000
     atom   21 type  1   force =     0.00000000    0.00000000    0.00000000
     atom   22 type  1   force =     0.00000000    0.00000000    0.00000000
     atom   23 type  1   force =     0.00000000    0.00000000    0.00000000
     atom   24 type  1   force =     0.00000000    0.00000000    0.00000000
     atom   25 type  1   force =     0.00000000    0.00000000    0.00000000
     atom   26 type  1   force =     0.00000000    0.00000000    0.00000000
     atom   27 type  1   force =     0.00000000    0.00000000    0.00000000
     atom   28 type  1   force =     0.00000000    0.00000000    0.00000000
     atom   29 type  1   force =     0.00000000    0.00000000    0.00000000
     atom   30 type  1   force =     0.00000000    0.00000000    0.00000000
     atom   31 type  1   force =     0.00000000    0.00000000    0.00000000
     atom   32 type  1   force =     0.00000000    0.00000000    0.00000000
     atom   33 type  1   force =     0.00000000    0.00000000    0.00000000
     atom   34 type  1   force =     0.00000000    0.00000000    0.00000000
     atom   35 type  1   force =     0.00000000    0.00000000    0.00000000
     atom   36 type  1   force =     0.00000000    0.00000000    0.00000000
     atom   37 type  1   force =     0.00000000    0.00000000    0.00000000
     atom   38 type  1   force =     0.00000000    0.00000000    0.00000000
     atom   39 type  1   force =     0.00000000    0.00000000    0.00000000
     atom   40 type  1   force =     0.00000000    0.00000000    0.00000000
     atom   41 type  1   force =     0.00000000    0.00000000    0.00000000
     atom   42 type  1   force =     0.00000000    0.00000000    0.00000000
     atom   43 type  1   force =     0.00000000    0.00000000    0.00000000
     atom   44 type  1   force =     0.00000000    0.00000000    0.00000000
     atom   45 type  2   force =     0.01415308    0.00082696    0.01351771
     atom   46 type  2   force =    -0.00056091   -0.02171382    0.00439263
     atom   47 type  2   force =    -0.00762153   -0.01654492   -0.00270412
     atom   48 type  2   force =    -0.00151829   -0.00904773    0.01434822
     atom   49 type  2   force =     0.00293432   -0.00363195    0.01766266
     atom   50 type  2   force =    -0.01950778    0.00942906    0.00687071
     atom   51 type  2   force =    -0.00581672    0.01473922   -0.01090209
     atom   52 type  2   force =    -0.00621446    0.00637407   -0.01557628
     atom   53 type  2   force =    -0.00800088    0.01701560    0.00229156
     atom   54 type  2   force =     0.00431067    0.00094714   -0.01595019
     atom   55 type  2   force =    -0.00248949    0.01600527   -0.00086056
     atom   56 type  2   force =    -0.00953184    0.01733526    0.00687898
     atom   57 type  2   force =    -0.00812932    0.00015308   -0.01247442
     atom   58 type  2   force =     0.01999488    0.00219201    0.00466999
     atom   59 type  2   force =     0.01703828    0.00099597   -0.00021969
     atom   60 type  2   force =    -0.00145269   -0.01859659    0.00575749
     atom   61 type  2   force =    -0.01128705   -0.00476248    0.01537841
     atom   62 type  2   force =     0.00129698   -0.01640580   -0.01015596
     atom   63 type  2   force =     0.01374272    0.00122882   -0.01070808
     atom   64 type  2   force =     0.01173643    0.01678964   -0.00066374
     atom   65 type  2   force =    -0.00509318   -0.02278623   -0.00499836
     atom   66 type  2   force =    -0.00067245   -0.00030487    0.01828093
     The Hubbard contrib.    to forces
     atom    1 type  1   force =     0.00000000    0.00000000    0.00000000
     atom    2 type  1   force =     0.00000000    0.00000000    0.00000000
     atom    3 type  1   force =     0.00000000    0.00000000    0.00000000
     atom    4 type  1   force =     0.00000000    0.00000000    0.00000000
     atom    5 type  1   force =     0.00000000    0.00000000    0.00000000
     atom    6 type  1   force =     0.00000000    0.00000000    0.00000000
     atom    7 type  1   force =     0.00000000    0.00000000    0.00000000
     atom    8 type  1   force =     0.00000000    0.00000000    0.00000000
     atom    9 type  1   force =     0.00000000    0.00000000    0.00000000
     atom   10 type  1   force =     0.00000000    0.00000000    0.00000000
     atom   11 type  1   force =     0.00000000    0.00000000    0.00000000
     atom   12 type  1   force =     0.00000000    0.00000000    0.00000000
     atom   13 type  1   force =     0.00000000    0.00000000    0.00000000
     atom   14 type  1   force =     0.00000000    0.00000000    0.00000000
     atom   15 type  1   force =     0.00000000    0.00000000    0.00000000
     atom   16 type  1   force =     0.00000000    0.00000000    0.00000000
     atom   17 type  1   force =     0.00000000    0.00000000    0.00000000
     atom   18 type  1   force =     0.00000000    0.00000000    0.00000000
     atom   19 type  1   force =     0.00000000    0.00000000    0.00000000
     atom   20 type  1   force =     0.00000000    0.00000000    0.00000000
     atom   21 type  1   force =     0.00000000    0.00000000    0.00000000
     atom   22 type  1   force =     0.00000000    0.00000000    0.00000000
     atom   23 type  1   force =     0.00000000    0.00000000    0.00000000
     atom   24 type  1   force =     0.00000000    0.00000000    0.00000000
     atom   25 type  1   force =     0.00000000    0.00000000    0.00000000
     atom   26 type  1   force =     0.00000000    0.00000000    0.00000000
     atom   27 type  1   force =     0.00000000    0.00000000    0.00000000
     atom   28 type  1   force =     0.00000000    0.00000000    0.00000000
     atom   29 type  1   force =     0.00000000    0.00000000    0.00000000
     atom   30 type  1   force =     0.00000000    0.00000000    0.00000000
     atom   31 type  1   force =     0.00000000    0.00000000    0.00000000
     atom   32 type  1   force =     0.00000000    0.00000000    0.00000000
     atom   33 type  1   force =     0.00000000    0.00000000    0.00000000
     atom   34 type  1   force =     0.00000000    0.00000000    0.00000000
     atom   35 type  1   force =     0.00000000    0.00000000    0.00000000
     atom   36 type  1   force =     0.00000000    0.00000000    0.00000000
     atom   37 type  1   force =     0.00000000    0.00000000    0.00000000
     atom   38 type  1   force =     0.00000000    0.00000000    0.00000000
     atom   39 type  1   force =     0.00000000    0.00000000    0.00000000
     atom   40 type  1   force =     0.00000000    0.00000000    0.00000000
     atom   41 type  1   force =     0.00000000    0.00000000    0.00000000
     atom   42 type  1   force =     0.00000000    0.00000000    0.00000000
     atom   43 type  1   force =     0.00000000    0.00000000    0.00000000
     atom   44 type  1   force =     0.00000000    0.00000000    0.00000000
     atom   45 type  2   force =     0.00000000    0.00000000    0.00000000
     atom   46 type  2   force =     0.00000000    0.00000000    0.00000000
     atom   47 type  2   force =     0.00000000    0.00000000    0.00000000
     atom   48 type  2   force =     0.00000000    0.00000000    0.00000000
     atom   49 type  2   force =     0.00000000    0.00000000    0.00000000
     atom   50 type  2   force =     0.00000000    0.00000000    0.00000000
     atom   51 type  2   force =     0.00000000    0.00000000    0.00000000
     atom   52 type  2   force =     0.00000000    0.00000000    0.00000000
     atom   53 type  2   force =     0.00000000    0.00000000    0.00000000
     atom   54 type  2   force =     0.00000000    0.00000000    0.00000000
     atom   55 type  2   force =     0.00000000    0.00000000    0.00000000
     atom   56 type  2   force =     0.00000000    0.00000000    0.00000000
     atom   57 type  2   force =     0.00000000    0.00000000    0.00000000
     atom   58 type  2   force =     0.00000000    0.00000000    0.00000000
     atom   59 type  2   force =     0.00000000    0.00000000    0.00000000
     atom   60 type  2   force =     0.00000000    0.00000000    0.00000000
     atom   61 type  2   force =     0.00000000    0.00000000    0.00000000
     atom   62 type  2   force =     0.00000000    0.00000000    0.00000000
     atom   63 type  2   force =     0.00000000    0.00000000    0.00000000
     atom   64 type  2   force =     0.00000000    0.00000000    0.00000000
     atom   65 type  2   force =     0.00000000    0.00000000    0.00000000
     atom   66 type  2   force =     0.00000000    0.00000000    0.00000000
     The SCF correction term to forces
     atom    1 type  1   force =    -0.00001690   -0.00001124   -0.00000192
     atom    2 type  1   force =     0.00000030    0.00000563   -0.00000530
     atom    3 type  1   force =    -0.00000784    0.00001514    0.00000474
     atom    4 type  1   force =     0.00000800    0.00001734   -0.00000765
     atom    5 type  1   force =     0.00001271   -0.00000001   -0.00000061
     atom    6 type  1   force =     0.00000645    0.00001294   -0.00000884
     atom    7 type  1   force =     0.00000800    0.00001640   -0.00000605
     atom    8 type  1   force =    -0.00000330    0.00001045   -0.00000751
     atom    9 type  1   force =    -0.00000787    0.00000739   -0.00000733
     atom   10 type  1   force =     0.00000763   -0.00000283   -0.00001805
     atom   11 type  1   force =     0.00001252   -0.00000639   -0.00000442
     atom   12 type  1   force =     0.00000648   -0.00001143   -0.00000192
     atom   13 type  1   force =     0.00000172   -0.00000210   -0.00000218
     atom   14 type  1   force =     0.00000833   -0.00000144    0.00001020
     atom   15 type  1   force =     0.00000640   -0.00000203    0.00000326
     atom   16 type  1   force =    -0.00000435    0.00000290    0.00000714
     atom   17 type  1   force =    -0.00000704    0.00001018   -0.00000137
     atom   18 type  1   force =     0.00000241    0.00001050   -0.00000406
     atom   19 type  1   force =     0.00000641    0.00000415   -0.00000713
     atom   20 type  1   force =    -0.00000005    0.00000669   -0.00000526
     atom   21 type  1   force =     0.00000192    0.00000157    0.00000112
     atom   22 type  1   force =     0.00000037    0.00000412   -0.00000049
     atom   23 type  1   force =     0.00000887    0.00000060   -0.00000001
     atom   24 type  1   force =    -0.00000134   -0.00000634   -0.00000484
     atom   25 type  1   force =     0.00001272    0.00000345    0.00000142
     atom   26 type  1   force =     0.00000554   -0.00000012    0.00000793
     atom   27 type  1   force =    -0.00000846    0.00000366   -0.00000079
     atom   28 type  1   force =    -0.00001472   -0.00000971    0.00000304
     atom   29 type  1   force =     0.00000020   -0.00000472    0.00000203
     atom   30 type  1   force =    -0.00000295    0.00000342   -0.00000489
     atom   31 type  1   force =    -0.00000028    0.00001276   -0.00001097
     atom   32 type  1   force =    -0.00000627    0.00002145    0.00000610
     atom   33 type  1   force =     0.00001040    0.00001018   -0.00000925
     atom   34 type  1   force =     0.00001336   -0.00000270   -0.00002041
     atom   35 type  1   force =    -0.00000872    0.00001032    0.00001456
     atom   36 type  1   force =     0.00000328    0.00001255   -0.00000069
     atom   37 type  1   force =    -0.00000588   -0.00000222    0.00000770
     atom   38 type  1   force =    -0.00000374    0.00000601    0.00000162
     atom   39 type  1   force =    -0.00000312   -0.00001696    0.00001464
     atom   40 type  1   force =    -0.00000569   -0.00000222   -0.00000800
     atom   41 type  1   force =    -0.00000783   -0.00000042   -0.00000283
     atom   42 type  1   force =    -0.00000397   -0.00000198    0.00000374
     atom   43 type  1   force =     0.00000433   -0.00001170   -0.00000998
     atom   44 type  1   force =    -0.00000194    0.00000122   -0.00000689
     atom   45 type  2   force =    -0.00001577    0.00000092   -0.00002597
     atom   46 type  2   force =     0.00001306    0.00009341    0.00000351
     atom   47 type  2   force =     0.00007766   -0.00002375   -0.00001364
     atom   48 type  2   force =     0.00003310    0.00007352   -0.00004715
     atom   49 type  2   force =    -0.00003094    0.00002255   -0.00003867
     atom   50 type  2   force =     0.00007714   -0.00010495   -0.00001746
     atom   51 type  2   force =     0.00001662    0.00001767    0.00000462
     atom   52 type  2   force =    -0.00000127    0.00000919   -0.00000647
     atom   53 type  2   force =    -0.00000085    0.00007103   -0.00002078
     atom   54 type  2   force =     0.00002107    0.00001621   -0.00006396
     atom   55 type  2   force =    -0.00000016    0.00003268   -0.00000089
     atom   56 type  2   force =     0.00007357    0.00002425    0.00000871
     atom   57 type  2   force =     0.00008359    0.00002660    0.00001324
     atom   58 type  2   force =    -0.00007395   -0.00000226   -0.00000815
     atom   59 type  2   force =     0.00001787    0.00001188   -0.00000278
     atom   60 type  2   force =    -0.00001862    0.00009941    0.00000905
     atom   61 type  2   force =     0.00006456    0.00004333   -0.00006372
     atom   62 type  2   force =    -0.00001620    0.00006820    0.00002886
     atom   63 type  2   force =    -0.00006132    0.00005452    0.00001821
     atom   64 type  2   force =    -0.00001566   -0.00001969    0.00000637
     atom   65 type  2   force =    -0.00004459   -0.00001908    0.00003510
     atom   66 type  2   force =    -0.00000572   -0.00004610   -0.00003072

     Total force =     0.542115     Total SCF correction =     0.000356


     Computing stress (Cartesian axis) and pressure


     negative rho (up, down):  4.922E-01 0.000E+00
          total   stress  (Ry/bohr**3)                   (kbar)     P=       -2.84
  -0.00001941   0.00000012  -0.00000012           -2.86        0.02       -0.02
   0.00000012  -0.00001920   0.00000166            0.02       -2.82        0.24
  -0.00000012   0.00000166  -0.00001938           -0.02        0.24       -2.85


     init_run     :      8.13s CPU      8.56s WALL (       1 calls)
     electrons    :     92.70s CPU     99.26s WALL (       1 calls)
     forces       :      5.68s CPU      6.01s WALL (       1 calls)
     stress       :     16.62s CPU     17.02s WALL (       1 calls)

     Called by init_run:
     wfcinit      :      3.09s CPU      3.28s WALL (       1 calls)
     potinit      :      1.32s CPU      1.39s WALL (       1 calls)
     hinit0       :      0.99s CPU      1.07s WALL (       1 calls)

     Called by electrons:
     c_bands      :     61.79s CPU     65.33s WALL (      11 calls)
     sum_band     :     17.74s CPU     19.16s WALL (      11 calls)
     v_of_rho     :      7.59s CPU      8.21s WALL (      12 calls)
     newd         :      3.89s CPU      4.85s WALL (      12 calls)
     PAW_pot      :      1.10s CPU      1.10s WALL (      12 calls)
     mix_rho      :      1.41s CPU      1.52s WALL (      11 calls)

     Called by c_bands:
     init_us_2    :      0.91s CPU      0.93s WALL (      23 calls)
     init_us_2:cp :      0.90s CPU      0.93s WALL (      23 calls)
     regterg      :     60.72s CPU     64.25s WALL (      11 calls)

     Called by *egterg:
     rdiaghg      :      0.23s CPU      0.23s WALL (      35 calls)
     h_psi        :     54.67s CPU     57.64s WALL (      36 calls)
     s_psi        :      1.51s CPU      1.51s WALL (      36 calls)
     g_psi        :      0.17s CPU      0.17s WALL (      24 calls)

     Called by h_psi:
     h_psi:calbec :      1.35s CPU      1.37s WALL (      36 calls)
     vloc_psi     :     51.33s CPU     54.26s WALL (      36 calls)
     add_vuspsi   :      1.48s CPU      1.49s WALL (      36 calls)

     General routines
     calbec       :      1.98s CPU      2.01s WALL (      52 calls)
     fft          :      4.50s CPU      5.15s WALL (     128 calls)
     ffts         :      0.31s CPU      0.35s WALL (      11 calls)
     fftw         :     43.96s CPU     47.23s WALL (    3182 calls)

     Parallel routines

     PWSCF        :   2m 3.27s CPU   2m11.05s WALL


   This run was terminated on:   5: 4:44  27Mar2024            

=------------------------------------------------------------------------------=
   JOB DONE.
=------------------------------------------------------------------------------=
