
     Program PWSCF v.7.2 starts on 27Mar2024 at 23:27:46 

     This program is part of the open-source Quantum ESPRESSO suite
     for quantum simulation of materials; please cite
         "P. Giannozzi et al., J. Phys.:Condens. Matter 21 395502 (2009);
         "P. Giannozzi et al., J. Phys.:Condens. Matter 29 465901 (2017);
         "P. Giannozzi et al., J. Chem. Phys. 152 154105 (2020);
          URL http://www.quantum-espresso.org", 
     in publications or presentations arising from this work. More details at
     http://www.quantum-espresso.org/quote

     Parallel version (MPI), running on    32 processors

     MPI processes distributed on     1 nodes
     175083 MiB available memory on the printing compute node when the environment starts

     Reading input from pw-wt-428.in
Warning: card &CELL ignored
Warning: card / ignored

     Current dimensions of program PWSCF are:
     Max number of different atomic species (ntypx) = 10
     Max number of k-points (npk) =  40000
     Max angular momentum in pseudopotentials (lmaxx) =  4
     file O.pbe-n-kjpaw_psl.0.1.UPF: wavefunction(s)  2P renormalized

     IMPORTANT: XC functional enforced from input :
     Exchange-correlation= PBE
                           (   1   4   3   4   0   0   0)
     Any further DFT definition will be discarded
     Please, verify this is what you really want


     gamma-point specific algorithms are used

     R & G space division:  proc/nbgrp/npool/nimage =      32
     Subspace diagonalization in iterative solution of the eigenvalue problem:
     a serial algorithm will be used


     Parallelization info
     --------------------
     sticks:   dense  smooth     PW     G-vecs:    dense   smooth      PW
     Min        1707    1707    426               301015   301015   37634
     Max        1710    1710    428               301034   301034   37648
     Sum       54693   54693  13673              9632757  9632757 1204469

     Using Slab Decomposition



     bravais-lattice index     =            0
     lattice parameter (alat)  =      75.7119  a.u.
     unit-cell volume          =  434002.3113 (a.u.)^3
     number of atoms/cell      =           66
     number of atomic types    =            2
     number of electrons       =       176.00
     number of Kohn-Sham states=           88
     kinetic-energy cutoff     =      30.0000  Ry
     charge density cutoff     =     120.0000  Ry
     scf convergence threshold =      1.0E-06
     mixing beta               =       0.5000
     number of iterations used =            8  plain     mixing
     Exchange-correlation= PBE
                           (   1   4   3   4   0   0   0)

     celldm(1)=  75.711877  celldm(2)=   0.000000  celldm(3)=   0.000000
     celldm(4)=   0.000000  celldm(5)=   0.000000  celldm(6)=   0.000000

     crystal axes: (cart. coord. in units of alat)
               a(1) = (   1.000000   0.000000   0.000000 )  
               a(2) = (   0.000000   1.000000   0.000000 )  
               a(3) = (   0.000000   0.000000   1.000000 )  

     reciprocal axes: (cart. coord. in units 2 pi/alat)
               b(1) = (  1.000000  0.000000  0.000000 )  
               b(2) = (  0.000000  1.000000  0.000000 )  
               b(3) = (  0.000000  0.000000  1.000000 )  


     PseudoPot. # 1 for H  read from file:
     /share/pfaendtnergroup/rverma7/QE_PP/H.pbe-rrkjus_psl.1.0.0.UPF
     MD5 check sum: f52b6d4d1c606e5624b1dc7b2218f220
     Pseudo is Ultrasoft, Zval =  1.0
     Generated using "atomic" code by A. Dal Corso  v.5.1
     Using radial grid of  929 points,  2 beta functions with: 
                l(1) =   0
                l(2) =   0
     Q(r) pseudized with 0 coefficients 


     PseudoPot. # 2 for O  read from file:
     /share/pfaendtnergroup/rverma7/QE_PP/O.pbe-n-kjpaw_psl.0.1.UPF
     MD5 check sum: 0234752ac141de4415c5fc33072bef88
     Pseudo is Projector augmented-wave + core cor, Zval =  6.0
     Generated using "atomic" code by A. Dal Corso  v.5.0.99 svn rev. 10869
     Shape of augmentation charge: BESSEL
     Using radial grid of 1095 points,  4 beta functions with: 
                l(1) =   0
                l(2) =   0
                l(3) =   1
                l(4) =   1
     Q(r) pseudized with 0 coefficients 


     atomic species   valence    mass     pseudopotential
        H              1.00     1.00800     H ( 1.00)
        O              6.00    15.99900     O ( 1.00)

     No symmetry found



   Cartesian axes

     site n.     atom                  positions (alat units)
         1           H   tau(   1) = (   0.3480594   0.2349432   0.4310995  )
         2           H   tau(   2) = (   0.3410957   0.2075877   0.4007238  )
         3           H   tau(   3) = (   0.2493947   0.2569574   0.4073131  )
         4           H   tau(   4) = (   0.2100087   0.2577062   0.4079621  )
         5           H   tau(   5) = (   0.3678023   0.2149757   0.3463871  )
         6           H   tau(   6) = (   0.3392487   0.1880444   0.3460127  )
         7           H   tau(   7) = (   0.2060152   0.2022214   0.4416074  )
         8           H   tau(   8) = (   0.2394359   0.2109073   0.4589043  )
         9           H   tau(   9) = (   0.2937477   0.3686010   0.4680145  )
        10           H   tau(  10) = (   0.2783976   0.3374267   0.4477973  )
        11           H   tau(  11) = (   0.3597404   0.3123674   0.3626108  )
        12           H   tau(  12) = (   0.3417197   0.3395732   0.3865968  )
        13           H   tau(  13) = (   0.3358792   0.2667915   0.3012355  )
        14           H   tau(  14) = (   0.3701984   0.2576563   0.2843130  )
        15           H   tau(  15) = (   0.1449145   0.2488955   0.4295520  )
        16           H   tau(  16) = (   0.1750905   0.2578809   0.4524148  )
        17           H   tau(  17) = (   0.3577187   0.2018720   0.2431798  )
        18           H   tau(  18) = (   0.3442905   0.2074379   0.2813179  )
        19           H   tau(  19) = (   0.2501934   0.3048546   0.4150256  )
        20           H   tau(  20) = (   0.2759266   0.3271684   0.3914639  )
        21           H   tau(  21) = (   0.3841508   0.2894796   0.3198303  )
        22           H   tau(  22) = (   0.4010483   0.2665419   0.3473605  )
        23           H   tau(  23) = (   0.2107575   0.2859853   0.4481717  )
        24           H   tau(  24) = (   0.2016972   0.3188319   0.4738300  )
        25           H   tau(  25) = (   0.2782478   0.1498814   0.4025708  )
        26           H   tau(  26) = (   0.2440534   0.1723949   0.4116311  )
        27           H   tau(  27) = (   0.2670161   0.2101086   0.3931611  )
        28           H   tau(  28) = (   0.3018595   0.2282790   0.4090353  )
        29           H   tau(  29) = (   0.3180582   0.2772245   0.4976913  )
        30           H   tau(  30) = (   0.2943966   0.3064021   0.4796955  )
        31           H   tau(  31) = (   0.2722077   0.1554724   0.3540247  )
        32           H   tau(  32) = (   0.2877574   0.1334332   0.3221265  )
        33           H   tau(  33) = (   0.2990640   0.2292525   0.3076251  )
        34           H   tau(  34) = (   0.3019344   0.1881443   0.3128916  )
        35           H   tau(  35) = (   0.2612255   0.2577062   0.4921752  )
        36           H   tau(  36) = (   0.2218894   0.2580057   0.4863846  )
        37           H   tau(  37) = (   0.3268938   0.1264445   0.4328716  )
        38           H   tau(  38) = (   0.3198303   0.1662299   0.4340696  )
        39           H   tau(  39) = (   0.3158118   0.2837888   0.3518283  )
        40           H   tau(  40) = (   0.2917259   0.2511669   0.3649819  )
        41           H   tau(  41) = (   0.3411456   0.2865094   0.4134531  )
        42           H   tau(  42) = (   0.3749657   0.2908024   0.4307500  )
        43           H   tau(  43) = (   0.3953076   0.2130039   0.3037564  )
        44           H   tau(  44) = (   0.4250842   0.2136528   0.3314115  )
        45           O   tau(  45) = (   0.3384500   0.2121053   0.4264570  )
        46           O   tau(  46) = (   0.2296019   0.2730064   0.4126295  )
        47           O   tau(  47) = (   0.3463871   0.2083115   0.3592662  )
        48           O   tau(  48) = (   0.2297017   0.1954324   0.4402346  )
        49           O   tau(  49) = (   0.2960689   0.3438413   0.4680394  )
        50           O   tau(  50) = (   0.3408461   0.3153376   0.3769125  )
        51           O   tau(  51) = (   0.3557968   0.2777237   0.2892550  )
        52           O   tau(  52) = (   0.1682516   0.2411831   0.4351679  )
        53           O   tau(  53) = (   0.3649819   0.2101335   0.2659678  )
        54           O   tau(  54) = (   0.2636965   0.3266192   0.4135530  )
        55           O   tau(  55) = (   0.3937352   0.2907026   0.3440909  )
        56           O   tau(  56) = (   0.1953076   0.2948459   0.4659179  )
        57           O   tau(  57) = (   0.2562336   0.1613628   0.3914140  )
        58           O   tau(  58) = (   0.2787221   0.2333209   0.3971546  )
        59           O   tau(  59) = (   0.2939473   0.2840634   0.4938974  )
        60           O   tau(  60) = (   0.2894047   0.1556221   0.3330338  )
        61           O   tau(  61) = (   0.3104954   0.2087608   0.2978660  )
        62           O   tau(  62) = (   0.2419568   0.2431549   0.4849370  )
        63           O   tau(  63) = (   0.3090228   0.1438163   0.4290278  )
        64           O   tau(  64) = (   0.3004368   0.2654686   0.3452390  )
        65           O   tau(  65) = (   0.3569699   0.2746537   0.4274554  )
        66           O   tau(  66) = (   0.4001747   0.2198178   0.3277175  )

     number of k points=     1
                       cart. coord. in units 2pi/alat
        k(    1) = (   0.0000000   0.0000000   0.0000000), wk =   2.0000000

     Dense  grid:  4816379 G-vectors     FFT dimensions: ( 270, 270, 270)

     Estimated max dynamical RAM per process >     612.29 MB

     Estimated total dynamical RAM >      19.13 GB

     Check: negative core charge=   -0.000006

     Initial potential from superposition of free atoms

     starting charge     175.9995, renormalised to     176.0000

     negative rho (up, down):  3.732E-01 0.000E+00
     Starting wfcs are  132 randomized atomic wfcs
     Checking if some PAW data can be deallocated... 

     total cpu time spent up to now is        8.1 secs

     Self-consistent Calculation

     iteration #  1     ecut=    30.00 Ry     beta= 0.50
     Davidson diagonalization with overlap
     ethr =  1.00E-02,  avg # of iterations =  2.0

     negative rho (up, down):  4.390E-01 0.000E+00

     total cpu time spent up to now is       16.1 secs

     total energy              =    -965.74617995 Ry
     estimated scf accuracy    <       6.83001878 Ry

     iteration #  2     ecut=    30.00 Ry     beta= 0.50
     Davidson diagonalization with overlap
     ethr =  3.88E-03,  avg # of iterations =  2.0

     negative rho (up, down):  4.588E-01 0.000E+00

     total cpu time spent up to now is       24.3 secs

     total energy              =    -967.66503974 Ry
     estimated scf accuracy    <       0.98170697 Ry

     iteration #  3     ecut=    30.00 Ry     beta= 0.50
     Davidson diagonalization with overlap
     ethr =  5.58E-04,  avg # of iterations =  2.0

     negative rho (up, down):  5.034E-01 0.000E+00

     total cpu time spent up to now is       31.7 secs

     total energy              =    -967.71362717 Ry
     estimated scf accuracy    <       0.13027258 Ry

     iteration #  4     ecut=    30.00 Ry     beta= 0.50
     Davidson diagonalization with overlap
     ethr =  7.40E-05,  avg # of iterations =  3.0

     negative rho (up, down):  5.025E-01 0.000E+00

     total cpu time spent up to now is       40.3 secs

     total energy              =    -967.73773566 Ry
     estimated scf accuracy    <       0.04235005 Ry

     iteration #  5     ecut=    30.00 Ry     beta= 0.50
     Davidson diagonalization with overlap
     ethr =  2.41E-05,  avg # of iterations =  2.0

     negative rho (up, down):  5.016E-01 0.000E+00

     total cpu time spent up to now is       47.1 secs

     total energy              =    -967.73871809 Ry
     estimated scf accuracy    <       0.00739788 Ry

     iteration #  6     ecut=    30.00 Ry     beta= 0.50
     Davidson diagonalization with overlap
     ethr =  4.20E-06,  avg # of iterations =  2.0

     negative rho (up, down):  5.005E-01 0.000E+00

     total cpu time spent up to now is       54.1 secs

     total energy              =    -967.73859829 Ry
     estimated scf accuracy    <       0.00184342 Ry

     iteration #  7     ecut=    30.00 Ry     beta= 0.50
     Davidson diagonalization with overlap
     ethr =  1.05E-06,  avg # of iterations =  2.0

     negative rho (up, down):  5.003E-01 0.000E+00

     total cpu time spent up to now is       62.2 secs

     total energy              =    -967.73901139 Ry
     estimated scf accuracy    <       0.00002513 Ry

     iteration #  8     ecut=    30.00 Ry     beta= 0.50
     Davidson diagonalization with overlap
     ethr =  1.43E-08,  avg # of iterations =  3.0

     negative rho (up, down):  5.003E-01 0.000E+00

     total cpu time spent up to now is       71.9 secs

     total energy              =    -967.73902771 Ry
     estimated scf accuracy    <       0.00003125 Ry

     iteration #  9     ecut=    30.00 Ry     beta= 0.50
     Davidson diagonalization with overlap
     ethr =  1.43E-08,  avg # of iterations =  2.0

     negative rho (up, down):  5.004E-01 0.000E+00

     total cpu time spent up to now is       78.5 secs

     total energy              =    -967.73902584 Ry
     estimated scf accuracy    <       0.00000951 Ry

     iteration # 10     ecut=    30.00 Ry     beta= 0.50
     Davidson diagonalization with overlap
     ethr =  5.41E-09,  avg # of iterations =  2.0

     negative rho (up, down):  5.004E-01 0.000E+00

     total cpu time spent up to now is       86.2 secs

     End of self-consistent calculation

          k = 0.0000 0.0000 0.0000 (602235 PWs)   bands (ev):

   -26.3128 -25.7905 -25.7504 -25.4319 -25.4165 -25.3591 -25.1374 -25.0891
   -25.0627 -24.9512 -24.8125 -24.7349 -24.6986 -24.5531 -24.5101 -24.2843
   -24.2013 -24.1871 -24.0645 -23.9368 -23.8099 -23.5974 -14.0576 -14.0081
   -13.6320 -13.4851 -13.3327 -13.2149 -13.0990 -13.0166 -12.9545 -12.8945
   -12.7732 -12.7216 -12.5688 -12.5133 -12.4245 -12.3879 -12.2209 -12.1215
   -12.0326 -11.9312 -11.8998 -11.8205 -10.8406 -10.7451 -10.7382 -10.4600
   -10.3602 -10.2274 -10.1652 -10.0798  -9.6426  -9.5399  -9.3706  -9.3334
    -9.3023  -9.1408  -9.0150  -8.8250  -8.4995  -8.4269  -8.3017  -8.1676
    -8.0486  -7.9301  -7.8266  -7.7612  -7.6654  -7.5956  -7.5612  -7.5034
    -7.4337  -7.3339  -7.3114  -7.2537  -7.2174  -7.1553  -6.9873  -6.9500
    -6.9250  -6.8460  -6.6840  -6.5951  -6.5881  -6.4069  -6.3050  -5.9607

     highest occupied level (ev):    -5.9607

!    total energy              =    -967.73902717 Ry
     estimated scf accuracy    <       0.00000040 Ry

     The total energy is the sum of the following terms:
     one-electron contribution =   -5987.85400513 Ry
     hartree contribution      =    3029.32962838 Ry
     xc contribution           =    -193.69599671 Ry
     ewald contribution        =    2393.79083237 Ry
     one-center paw contrib.   =    -209.30948608 Ry

     convergence has been achieved in  10 iterations

     negative rho (up, down):  5.004E-01 0.000E+00

     Forces acting on atoms (cartesian axes, Ry/au):

     atom    1 type  1   force =     0.00274294   -0.01644945   -0.01118295
     atom    2 type  1   force =     0.02399058    0.01939672    0.04547035
     atom    3 type  1   force =    -0.00753486    0.01462428    0.02001557
     atom    4 type  1   force =     0.01678104    0.03620657    0.00866589
     atom    5 type  1   force =    -0.03845133   -0.01573678    0.04578379
     atom    6 type  1   force =     0.00384339    0.03817189    0.03588010
     atom    7 type  1   force =     0.00323265   -0.01186459   -0.01138522
     atom    8 type  1   force =    -0.00883424   -0.02022178   -0.03459074
     atom    9 type  1   force =     0.00700802   -0.02990372    0.01428031
     atom   10 type  1   force =     0.07165025    0.01993765    0.03806817
     atom   11 type  1   force =     0.07770449   -0.01795449   -0.03686126
     atom   12 type  1   force =    -0.00047200   -0.09158991   -0.04490491
     atom   13 type  1   force =     0.04774863    0.03151034   -0.02191380
     atom   14 type  1   force =    -0.03437682    0.02421026   -0.01328426
     atom   15 type  1   force =     0.04650273   -0.02013290    0.00839294
     atom   16 type  1   force =    -0.01650797   -0.00647077   -0.00802070
     atom   17 type  1   force =     0.01950764    0.02138637    0.05761612
     atom   18 type  1   force =    -0.00307689    0.00796089   -0.02491487
     atom   19 type  1   force =     0.01112468    0.03453460   -0.02682528
     atom   20 type  1   force =    -0.02748090   -0.01199347    0.04987494
     atom   21 type  1   force =     0.00627386    0.00080311    0.05376623
     atom   22 type  1   force =    -0.02460725    0.05832299   -0.00648028
     atom   23 type  1   force =     0.01794574    0.03615901   -0.00120682
     atom   24 type  1   force =    -0.01409380   -0.09747731   -0.04105804
     atom   25 type  1   force =    -0.08325732    0.04617546   -0.02460452
     atom   26 type  1   force =     0.01242618   -0.01744362   -0.02488428
     atom   27 type  1   force =     0.04808314    0.05474168    0.01561870
     atom   28 type  1   force =    -0.05513510   -0.00625684   -0.00694976
     atom   29 type  1   force =    -0.05956949    0.02141871   -0.01666190
     atom   30 type  1   force =     0.01459906   -0.06136474    0.06595185
     atom   31 type  1   force =     0.04794398    0.01168618   -0.06035789
     atom   32 type  1   force =    -0.00180438    0.02552796    0.01219967
     atom   33 type  1   force =     0.03088642   -0.03632954   -0.00485308
     atom   34 type  1   force =     0.01252589    0.06044695   -0.04863716
     atom   35 type  1   force =     0.00091204   -0.00532558   -0.01415764
     atom   36 type  1   force =     0.02748017   -0.01459900    0.00250136
     atom   37 type  1   force =    -0.03696536    0.04005997   -0.01023929
     atom   38 type  1   force =    -0.00914544   -0.03052982   -0.00703834
     atom   39 type  1   force =    -0.02398112   -0.02282966    0.01686462
     atom   40 type  1   force =     0.02906497    0.03551481   -0.02310654
     atom   41 type  1   force =    -0.01017884    0.02034109   -0.02782530
     atom   42 type  1   force =     0.00095791   -0.00563064   -0.00002116
     atom   43 type  1   force =     0.00394060    0.00601120    0.01962722
     atom   44 type  1   force =    -0.08693553    0.01568290   -0.01067353
     atom   45 type  2   force =    -0.02854146   -0.01918015   -0.05226585
     atom   46 type  2   force =    -0.02435277   -0.07000269   -0.02445361
     atom   47 type  2   force =     0.01332585   -0.04677891   -0.03573963
     atom   48 type  2   force =    -0.00886208    0.03173812    0.04661892
     atom   49 type  2   force =    -0.06971071    0.02605827   -0.07938374
     atom   50 type  2   force =    -0.08097150    0.11732490    0.08418136
     atom   51 type  2   force =    -0.01677875   -0.04961716    0.02335427
     atom   52 type  2   force =    -0.04129930    0.02103757   -0.00377765
     atom   53 type  2   force =     0.00391582   -0.02387137   -0.02806791
     atom   54 type  2   force =     0.00987867   -0.00056438   -0.03000896
     atom   55 type  2   force =     0.01312747   -0.04247898   -0.04661327
     atom   56 type  2   force =     0.00754686    0.07068784    0.04544260
     atom   57 type  2   force =     0.07756471   -0.02870705    0.04332318
     atom   58 type  2   force =     0.01057861   -0.07834820    0.00810202
     atom   59 type  2   force =     0.05328898    0.02904366   -0.02134946
     atom   60 type  2   force =    -0.04747004   -0.02783261    0.05490250
     atom   61 type  2   force =    -0.06695681   -0.03157376    0.05416522
     atom   62 type  2   force =    -0.02396624    0.01117854    0.02045616
     atom   63 type  2   force =     0.05569953   -0.00069500    0.01922533
     atom   64 type  2   force =    -0.01171574    0.00338338   -0.02361429
     atom   65 type  2   force =     0.02176988   -0.00906654    0.03990733
     atom   66 type  2   force =     0.11146065   -0.02246248   -0.04234280
     The non-local contrib.  to forces
     atom    1 type  1   force =    -0.03615040   -0.08587336   -0.02030047
     atom    2 type  1   force =    -0.00747479    0.01628003    0.07836075
     atom    3 type  1   force =    -0.06174124    0.04848409    0.01629307
     atom    4 type  1   force =     0.07557778    0.05820496    0.01736049
     atom    5 type  1   force =    -0.06818662   -0.02314817    0.03985373
     atom    6 type  1   force =     0.02952985    0.07776740    0.05018298
     atom    7 type  1   force =     0.10224578   -0.02849769   -0.00514650
     atom    8 type  1   force =    -0.03177542   -0.04793284   -0.05886515
     atom    9 type  1   force =     0.00805401   -0.10080415   -0.00063562
     atom   10 type  1   force =     0.03916842    0.01530151    0.04440395
     atom   11 type  1   force =    -0.09336138    0.01906167    0.07172174
     atom   12 type  1   force =    -0.00069678   -0.07853443   -0.03329502
     atom   13 type  1   force =     0.07265978    0.03654281   -0.04271405
     atom   14 type  1   force =    -0.05712622    0.07724898    0.02191045
     atom   15 type  1   force =     0.09060480   -0.02803015    0.02333770
     atom   16 type  1   force =    -0.02922438   -0.06712120   -0.07056758
     atom   17 type  1   force =     0.02579895    0.03054624    0.08698853
     atom   18 type  1   force =     0.06286950    0.00792817   -0.04901424
     atom   19 type  1   force =     0.04676924    0.07178640   -0.00731152
     atom   20 type  1   force =    -0.04739932   -0.00435645    0.08536652
     atom   21 type  1   force =     0.03097389    0.00125411    0.07677507
     atom   22 type  1   force =    -0.02789178    0.08895615   -0.01304146
     atom   23 type  1   force =    -0.05731849    0.03696036    0.06792023
     atom   24 type  1   force =    -0.01819051   -0.07921111   -0.02824821
     atom   25 type  1   force =    -0.05612824    0.03050208   -0.02705184
     atom   26 type  1   force =     0.03909310   -0.03334964   -0.06189703
     atom   27 type  1   force =     0.03854274    0.07207211    0.01316964
     atom   28 type  1   force =    -0.06678584    0.01260639   -0.03460310
     atom   29 type  1   force =    -0.08974339    0.02755560   -0.01567708
     atom   30 type  1   force =     0.00086052   -0.06514447    0.04072449
     atom   31 type  1   force =     0.04390854   -0.00169070   -0.05395027
     atom   32 type  1   force =     0.00539833    0.09259899    0.04696842
     atom   33 type  1   force =     0.04246504   -0.07780095   -0.03579086
     atom   34 type  1   force =     0.02259946    0.05554074   -0.03823467
     atom   35 type  1   force =    -0.07480666   -0.05323446   -0.02752715
     atom   36 type  1   force =     0.08139247   -0.05847374   -0.00604359
     atom   37 type  1   force =    -0.06709884    0.06931333   -0.01475553
     atom   38 type  1   force =    -0.03827094   -0.08680788   -0.01902189
     atom   39 type  1   force =    -0.06360565   -0.07722524   -0.02411087
     atom   40 type  1   force =     0.02966402    0.04710457   -0.05910669
     atom   41 type  1   force =     0.07540286   -0.05421144    0.06666848
     atom   42 type  1   force =    -0.08236711   -0.07147794   -0.01608454
     atom   43 type  1   force =     0.02107981    0.02536651    0.09066539
     atom   44 type  1   force =    -0.08468043    0.01996880   -0.01450100
     atom   45 type  2   force =     0.52479454    1.16444826   -1.25708947
     atom   46 type  2   force =    -0.20148626   -1.62271800   -0.41825163
     atom   47 type  2   force =     0.82871789   -1.14272979   -1.37777222
     atom   48 type  2   force =    -1.02775722    1.20366386    0.94249201
     atom   49 type  2   force =    -1.14672239    1.33769805   -0.92891939
     atom   50 type  2   force =     1.28372250    1.51774072   -0.30297434
     atom   51 type  2   force =    -0.19524226   -2.11931906    0.69542027
     atom   52 type  2   force =    -1.17507462    1.72118417    0.74326166
     atom   53 type  2   force =    -1.48384389   -0.76525753   -0.68299377
     atom   54 type  2   force =     0.26979314   -1.22228478   -1.23164106
     atom   55 type  2   force =    -0.17330455   -1.67249694   -1.13907509
     atom   56 type  2   force =     1.50403968    1.02628468   -0.56048366
     atom   57 type  2   force =     0.67309963    0.09802008    1.48726953
     atom   58 type  2   force =     0.48108888   -1.48343493    0.31458406
     atom   59 type  2   force =     1.68719183    0.66649254   -0.64900049
     atom   60 type  2   force =    -0.99937452   -1.51850141    0.20630047
     atom   61 type  2   force =    -0.95036264    0.22627322    1.41952469
     atom   62 type  2   force =    -0.24232400    1.77678473    0.43460527
     atom   63 type  2   force =     2.01626417    0.25247729    0.42726187
     atom   64 type  2   force =     0.64250800    0.44107927    1.53902660
     atom   65 type  2   force =     0.21279014    1.88750727   -0.63729041
     atom   66 type  2   force =     1.32678106   -0.88540782   -1.24640237
     The ionic contribution  to forces
     atom    1 type  1   force =     2.79999506    1.49718008    2.44152638
     atom    2 type  1   force =     1.88224847   -1.83615488   -1.20951756
     atom    3 type  1   force =     0.27732020   -0.77447996   -0.83247538
     atom    4 type  1   force =    -4.30034135   -1.40805717   -1.90223426
     atom    5 type  1   force =     3.23635909   -0.39765422   -0.99204751
     atom    6 type  1   force =     0.27307878   -4.41424507   -1.90655025
     atom    7 type  1   force =    -4.98156740   -0.96879014    0.84382602
     atom    8 type  1   force =     0.26727288   -0.38736865    3.29509510
     atom    9 type  1   force =    -0.01713621    5.51419014    1.09017087
     atom   10 type  1   force =    -1.42052548    1.95193861   -0.23005689
     atom   11 type  1   force =     3.47379940    2.03133025   -2.24524850
     atom   12 type  1   force =     0.88356872    5.26058319    0.95063861
     atom   13 type  1   force =    -2.33092965    0.20300818   -0.89346400
     atom   14 type  1   force =     2.92119635   -1.19542760   -2.87911425
     atom   15 type  1   force =    -5.39256727    0.79978205   -0.89611472
     atom   16 type  1   force =    -1.99823709    1.57975812    2.80310368
     atom   17 type  1   force =    -0.30501213   -1.77452039   -5.21773601
     atom   18 type  1   force =    -1.03501233   -1.38988603   -1.03810427
     atom   19 type  1   force =    -2.05949295    0.22011154   -0.12301976
     atom   20 type  1   force =     0.78460978    2.47030680   -3.56264964
     atom   21 type  1   force =     1.13872879    1.76575986   -3.38763441
     atom   22 type  1   force =     3.44660581   -1.83690034    0.55887990
     atom   23 type  1   force =    -0.17495286    0.58348729   -0.86510106
     atom   24 type  1   force =    -0.89500404    4.43620227    2.19446407
     atom   25 type  1   force =     1.01414385   -3.48106958    0.84623787
     atom   26 type  1   force =    -2.63263872   -1.33761087    1.73364052
     atom   27 type  1   force =    -2.20107877   -2.85420641   -1.00645931
     atom   28 type  1   force =     1.90589066   -0.64052905    1.80703794
     atom   29 type  1   force =     4.06615645   -0.69901199    2.82159101
     atom   30 type  1   force =     0.49677372    2.53174477    0.77332815
     atom   31 type  1   force =    -2.37465156   -2.10719130    0.20581751
     atom   32 type  1   force =    -0.60068478   -5.13627710   -2.75125413
     atom   33 type  1   force =    -2.74528207    2.27862277   -1.24968452
     atom   34 type  1   force =    -1.39491496   -2.72727025   -0.87862687
     atom   35 type  1   force =     1.69924379    1.07400685    3.30264129
     atom   36 type  1   force =    -3.53164338    1.48642114    2.76532252
     atom   37 type  1   force =     3.05290404   -4.41880974    1.41596832
     atom   38 type  1   force =     2.07447959    0.46228695    2.21616410
     atom   39 type  1   force =     1.30534384    3.59056739   -0.63287150
     atom   40 type  1   force =    -1.59386405   -0.59969517    0.24947416
     atom   41 type  1   force =    -0.95451805    2.46159003   -0.58547026
     atom   42 type  1   force =     4.72918968    3.15443659    1.91978000
     atom   43 type  1   force =     1.86879764   -1.76771766   -3.81849664
     atom   44 type  1   force =     5.38255160   -1.48787489    0.15888967
     atom   45 type  2   force =     8.56301345   -8.69951429   12.25460363
     atom   46 type  2   force =   -10.09621125    7.24285191   -4.05432725
     atom   47 type  2   force =     6.25839220   -6.18005449    1.39141299
     atom   48 type  2   force =    -7.44349853  -12.21657053    4.92811416
     atom   49 type  2   force =     4.51046314   11.65030332    9.43259156
     atom   50 type  2   force =     1.81952853   12.57101434   -0.93068068
     atom   51 type  2   force =     2.84532305   12.17964646  -14.54159419
     atom   52 type  2   force =   -14.30420982   -5.66317312   -1.07548977
     atom   53 type  2   force =     8.73108495   -4.15380788  -14.07741461
     atom   54 type  2   force =    -4.75774819   15.95329043   -1.01636728
     atom   55 type  2   force =    14.22365014   10.99087180   -0.43626748
     atom   56 type  2   force =   -13.96677912    8.08040091    9.19526905
     atom   57 type  2   force =    -9.51877127  -12.99345563   -4.35110647
     atom   58 type  2   force =    -4.64060045    0.30682997   -1.00510983
     atom   59 type  2   force =     1.69918717    1.51685690   15.14825895
     atom   60 type  2   force =    -1.96318557  -10.95949697   -8.10819190
     atom   61 type  2   force =    -4.51107750   -4.50150191  -15.29990707
     atom   62 type  2   force =    -3.45010382   -6.25420187   14.02268750
     atom   63 type  2   force =     1.01925804  -14.63378608    6.59903257
     atom   64 type  2   force =    -6.66468718    6.21970550  -11.84850557
     atom   65 type  2   force =    11.54746822    1.51746260   10.10361722
     atom   66 type  2   force =    14.05930075   -3.68623771   -1.62029149
     The local contribution  to forces
     atom    1 type  1   force =    -2.76102778   -1.42775889   -2.43245678
     atom    2 type  1   force =    -1.85070638    1.83927926    1.17658446
     atom    3 type  1   force =    -0.22303475    0.74061198    0.83615851
     atom    4 type  1   force =     4.24160955    1.38604914    1.89349766
     atom    5 type  1   force =    -3.20655323    0.40506632    0.99793423
     atom    6 type  1   force =    -0.29868716    4.37464562    1.89219735
     atom    7 type  1   force =     4.88261825    0.98542337   -0.85009864
     atom    8 type  1   force =    -0.24425962    0.41508048   -3.27085832
     atom    9 type  1   force =     0.01615416   -5.44327090   -1.07530250
     atom   10 type  1   force =     1.45307444   -1.94730390    0.22367715
     atom   11 type  1   force =    -3.30264371   -2.06835382    2.13661482
     atom   12 type  1   force =    -0.88326325   -5.27362143   -0.96227961
     atom   13 type  1   force =     2.30607243   -0.20807320    0.91425073
     atom   14 type  1   force =    -2.89835874    1.14235913    2.84389230
     atom   15 type  1   force =     5.34850083   -0.79186280    0.88112811
     atom   16 type  1   force =     2.01102752   -1.51908120   -2.74057516
     atom   17 type  1   force =     0.29876873    1.76534249    5.18828562
     atom   18 type  1   force =     0.96910279    1.38991647    1.06218581
     atom   19 type  1   force =     2.02392549   -0.25736959    0.10346859
     atom   20 type  1   force =    -0.76460798   -2.47794942    3.52710746
     atom   21 type  1   force =    -1.16335652   -1.76622748    3.36459094
     atom   22 type  1   force =    -3.44325505    1.80625619   -0.55236426
     atom   23 type  1   force =     0.25031060   -0.58429968    0.79591968
     atom   24 type  1   force =     0.89919053   -4.45443901   -2.20730507
     atom   25 type  1   force =    -1.04120129    3.49674278   -0.84382985
     atom   26 type  1   force =     2.60605147    1.35351093   -1.69666498
     atom   27 type  1   force =     2.21068924    2.83685493    1.00886979
     atom   28 type  1   force =    -1.89414119    0.62166146   -1.77942028
     atom   29 type  1   force =    -4.03589109    0.69287170   -2.82261528
     atom   30 type  1   force =    -0.48295778   -2.52796282   -0.74814981
     atom   31 type  1   force =     2.37874758    2.12055713   -0.21225397
     atom   32 type  1   force =     0.59354860    5.06918268    2.71643972
     atom   33 type  1   force =     2.73377906   -2.23714597    1.28058799
     atom   34 type  1   force =     1.38491570    2.73218340    0.86818732
     atom   35 type  1   force =    -1.62343099   -1.02607302   -3.28929959
     atom   36 type  1   force =     3.47778674   -1.44251583   -2.75681141
     atom   37 type  1   force =    -3.02267678    4.38954688   -1.41148678
     atom   38 type  1   force =    -2.04526645   -0.40599563   -2.20421657
     atom   39 type  1   force =    -1.26562455   -3.53616012    0.67381676
     atom   40 type  1   force =     1.59334542    0.58809615   -0.21349520
     atom   41 type  1   force =     0.86899877   -2.38702800    0.49092433
     atom   42 type  1   force =    -4.64577935   -3.08856969   -1.90375823
     atom   43 type  1   force =    -1.88586345    1.74835825    3.74741267
     atom   44 type  1   force =    -5.38471231    1.48358137   -0.15510099
     atom   45 type  2   force =    -9.11132467    7.52672139  -11.06253111
     atom   46 type  2   force =    10.27073173   -5.70558385    4.44420926
     atom   47 type  2   force =    -7.06566709    7.26444203   -0.06198412
     atom   48 type  2   force =     8.45260252   11.05632450   -5.81384511
     atom   49 type  2   force =    -3.44530734  -12.94710440   -8.59274210
     atom   50 type  2   force =    -3.17202946  -13.95451042    1.31555504
     atom   51 type  2   force =    -2.66911480  -10.13058450   13.87597162
     atom   52 type  2   force =    15.42536673    3.97933596    0.33577831
     atom   53 type  2   force =    -7.25780545    4.88721296   14.72458356
     atom   54 type  2   force =     4.50084738  -14.74306323    2.20549704
     atom   55 type  2   force =   -14.03913821   -9.37802210    1.51755256
     atom   56 type  2   force =    12.48559823   -9.02444538   -8.59359567
     atom   57 type  2   force =     8.93002173   12.86763207    2.92225388
     atom   58 type  2   force =     4.17468128    1.08308962    0.70235375
     atom   59 type  2   force =    -3.31609722   -2.14740525  -14.52751354
     atom   60 type  2   force =     2.90403352   12.43401952    7.95886136
     atom   61 type  2   force =     5.38452619    4.24601359   13.94925648
     atom   62 type  2   force =     3.66629909    4.50637043  -14.43198531
     atom   63 type  2   force =    -2.95936458   14.38225137   -7.00193769
     atom   64 type  2   force =     6.01694321   -6.65307595   10.29994664
     atom   65 type  2   force =   -11.73536910   -3.39568259   -9.43213232
     atom   66 type  2   force =   -15.25968160    4.53997743    2.81128223
     The core correction contribution to forces
     atom    1 type  1   force =     0.00000000    0.00000000    0.00000000
     atom    2 type  1   force =     0.00000000    0.00000000    0.00000000
     atom    3 type  1   force =     0.00000000    0.00000000    0.00000000
     atom    4 type  1   force =     0.00000000    0.00000000    0.00000000
     atom    5 type  1   force =     0.00000000    0.00000000    0.00000000
     atom    6 type  1   force =     0.00000000    0.00000000    0.00000000
     atom    7 type  1   force =     0.00000000    0.00000000    0.00000000
     atom    8 type  1   force =     0.00000000    0.00000000    0.00000000
     atom    9 type  1   force =     0.00000000    0.00000000    0.00000000
     atom   10 type  1   force =     0.00000000    0.00000000    0.00000000
     atom   11 type  1   force =     0.00000000    0.00000000    0.00000000
     atom   12 type  1   force =     0.00000000    0.00000000    0.00000000
     atom   13 type  1   force =     0.00000000    0.00000000    0.00000000
     atom   14 type  1   force =     0.00000000    0.00000000    0.00000000
     atom   15 type  1   force =     0.00000000    0.00000000    0.00000000
     atom   16 type  1   force =     0.00000000    0.00000000    0.00000000
     atom   17 type  1   force =     0.00000000    0.00000000    0.00000000
     atom   18 type  1   force =     0.00000000    0.00000000    0.00000000
     atom   19 type  1   force =     0.00000000    0.00000000    0.00000000
     atom   20 type  1   force =     0.00000000    0.00000000    0.00000000
     atom   21 type  1   force =     0.00000000    0.00000000    0.00000000
     atom   22 type  1   force =     0.00000000    0.00000000    0.00000000
     atom   23 type  1   force =     0.00000000    0.00000000    0.00000000
     atom   24 type  1   force =     0.00000000    0.00000000    0.00000000
     atom   25 type  1   force =     0.00000000    0.00000000    0.00000000
     atom   26 type  1   force =     0.00000000    0.00000000    0.00000000
     atom   27 type  1   force =     0.00000000    0.00000000    0.00000000
     atom   28 type  1   force =     0.00000000    0.00000000    0.00000000
     atom   29 type  1   force =     0.00000000    0.00000000    0.00000000
     atom   30 type  1   force =     0.00000000    0.00000000    0.00000000
     atom   31 type  1   force =     0.00000000    0.00000000    0.00000000
     atom   32 type  1   force =     0.00000000    0.00000000    0.00000000
     atom   33 type  1   force =     0.00000000    0.00000000    0.00000000
     atom   34 type  1   force =     0.00000000    0.00000000    0.00000000
     atom   35 type  1   force =     0.00000000    0.00000000    0.00000000
     atom   36 type  1   force =     0.00000000    0.00000000    0.00000000
     atom   37 type  1   force =     0.00000000    0.00000000    0.00000000
     atom   38 type  1   force =     0.00000000    0.00000000    0.00000000
     atom   39 type  1   force =     0.00000000    0.00000000    0.00000000
     atom   40 type  1   force =     0.00000000    0.00000000    0.00000000
     atom   41 type  1   force =     0.00000000    0.00000000    0.00000000
     atom   42 type  1   force =     0.00000000    0.00000000    0.00000000
     atom   43 type  1   force =     0.00000000    0.00000000    0.00000000
     atom   44 type  1   force =     0.00000000    0.00000000    0.00000000
     atom   45 type  2   force =    -0.00486283   -0.01068679    0.01260720
     atom   46 type  2   force =     0.00264912    0.01536326    0.00386428
     atom   47 type  2   force =    -0.00795489    0.01154324    0.01246791
     atom   48 type  2   force =     0.00973325   -0.01161634   -0.01012324
     atom   49 type  2   force =     0.01180073   -0.01478532    0.00949883
     atom   50 type  2   force =    -0.01197581   -0.01690672    0.00219196
     atom   51 type  2   force =     0.00233941    0.02039364   -0.00637388
     atom   52 type  2   force =     0.01254823   -0.01608391   -0.00729100
     atom   53 type  2   force =     0.01430984    0.00790842    0.00764079
     atom   54 type  2   force =    -0.00287957    0.01142191    0.01241384
     atom   55 type  2   force =     0.00193769    0.01700560    0.01104564
     atom   56 type  2   force =    -0.01511362   -0.01153534    0.00413630
     atom   57 type  2   force =    -0.00667569   -0.00091138   -0.01498559
     atom   58 type  2   force =    -0.00444696    0.01513512   -0.00375014
     atom   59 type  2   force =    -0.01678453   -0.00690720    0.00684388
     atom   60 type  2   force =     0.01103655    0.01596581   -0.00212887
     atom   61 type  2   force =     0.01001347   -0.00230620   -0.01468036
     atom   62 type  2   force =     0.00229646   -0.01753936   -0.00480494
     atom   63 type  2   force =    -0.02023871   -0.00160379   -0.00513592
     atom   64 type  2   force =    -0.00628867   -0.00425380   -0.01398606
     atom   65 type  2   force =    -0.00307389   -0.01823277    0.00558445
     atom   66 type  2   force =    -0.01489215    0.00917717    0.01297036
     The Hubbard contrib.    to forces
     atom    1 type  1   force =     0.00000000    0.00000000    0.00000000
     atom    2 type  1   force =     0.00000000    0.00000000    0.00000000
     atom    3 type  1   force =     0.00000000    0.00000000    0.00000000
     atom    4 type  1   force =     0.00000000    0.00000000    0.00000000
     atom    5 type  1   force =     0.00000000    0.00000000    0.00000000
     atom    6 type  1   force =     0.00000000    0.00000000    0.00000000
     atom    7 type  1   force =     0.00000000    0.00000000    0.00000000
     atom    8 type  1   force =     0.00000000    0.00000000    0.00000000
     atom    9 type  1   force =     0.00000000    0.00000000    0.00000000
     atom   10 type  1   force =     0.00000000    0.00000000    0.00000000
     atom   11 type  1   force =     0.00000000    0.00000000    0.00000000
     atom   12 type  1   force =     0.00000000    0.00000000    0.00000000
     atom   13 type  1   force =     0.00000000    0.00000000    0.00000000
     atom   14 type  1   force =     0.00000000    0.00000000    0.00000000
     atom   15 type  1   force =     0.00000000    0.00000000    0.00000000
     atom   16 type  1   force =     0.00000000    0.00000000    0.00000000
     atom   17 type  1   force =     0.00000000    0.00000000    0.00000000
     atom   18 type  1   force =     0.00000000    0.00000000    0.00000000
     atom   19 type  1   force =     0.00000000    0.00000000    0.00000000
     atom   20 type  1   force =     0.00000000    0.00000000    0.00000000
     atom   21 type  1   force =     0.00000000    0.00000000    0.00000000
     atom   22 type  1   force =     0.00000000    0.00000000    0.00000000
     atom   23 type  1   force =     0.00000000    0.00000000    0.00000000
     atom   24 type  1   force =     0.00000000    0.00000000    0.00000000
     atom   25 type  1   force =     0.00000000    0.00000000    0.00000000
     atom   26 type  1   force =     0.00000000    0.00000000    0.00000000
     atom   27 type  1   force =     0.00000000    0.00000000    0.00000000
     atom   28 type  1   force =     0.00000000    0.00000000    0.00000000
     atom   29 type  1   force =     0.00000000    0.00000000    0.00000000
     atom   30 type  1   force =     0.00000000    0.00000000    0.00000000
     atom   31 type  1   force =     0.00000000    0.00000000    0.00000000
     atom   32 type  1   force =     0.00000000    0.00000000    0.00000000
     atom   33 type  1   force =     0.00000000    0.00000000    0.00000000
     atom   34 type  1   force =     0.00000000    0.00000000    0.00000000
     atom   35 type  1   force =     0.00000000    0.00000000    0.00000000
     atom   36 type  1   force =     0.00000000    0.00000000    0.00000000
     atom   37 type  1   force =     0.00000000    0.00000000    0.00000000
     atom   38 type  1   force =     0.00000000    0.00000000    0.00000000
     atom   39 type  1   force =     0.00000000    0.00000000    0.00000000
     atom   40 type  1   force =     0.00000000    0.00000000    0.00000000
     atom   41 type  1   force =     0.00000000    0.00000000    0.00000000
     atom   42 type  1   force =     0.00000000    0.00000000    0.00000000
     atom   43 type  1   force =     0.00000000    0.00000000    0.00000000
     atom   44 type  1   force =     0.00000000    0.00000000    0.00000000
     atom   45 type  2   force =     0.00000000    0.00000000    0.00000000
     atom   46 type  2   force =     0.00000000    0.00000000    0.00000000
     atom   47 type  2   force =     0.00000000    0.00000000    0.00000000
     atom   48 type  2   force =     0.00000000    0.00000000    0.00000000
     atom   49 type  2   force =     0.00000000    0.00000000    0.00000000
     atom   50 type  2   force =     0.00000000    0.00000000    0.00000000
     atom   51 type  2   force =     0.00000000    0.00000000    0.00000000
     atom   52 type  2   force =     0.00000000    0.00000000    0.00000000
     atom   53 type  2   force =     0.00000000    0.00000000    0.00000000
     atom   54 type  2   force =     0.00000000    0.00000000    0.00000000
     atom   55 type  2   force =     0.00000000    0.00000000    0.00000000
     atom   56 type  2   force =     0.00000000    0.00000000    0.00000000
     atom   57 type  2   force =     0.00000000    0.00000000    0.00000000
     atom   58 type  2   force =     0.00000000    0.00000000    0.00000000
     atom   59 type  2   force =     0.00000000    0.00000000    0.00000000
     atom   60 type  2   force =     0.00000000    0.00000000    0.00000000
     atom   61 type  2   force =     0.00000000    0.00000000    0.00000000
     atom   62 type  2   force =     0.00000000    0.00000000    0.00000000
     atom   63 type  2   force =     0.00000000    0.00000000    0.00000000
     atom   64 type  2   force =     0.00000000    0.00000000    0.00000000
     atom   65 type  2   force =     0.00000000    0.00000000    0.00000000
     atom   66 type  2   force =     0.00000000    0.00000000    0.00000000
     The SCF correction term to forces
     atom    1 type  1   force =    -0.00000022    0.00000133    0.00000891
     atom    2 type  1   force =    -0.00000300   -0.00000909    0.00000369
     atom    3 type  1   force =    -0.00000535    0.00000678    0.00000036
     atom    4 type  1   force =     0.00000877    0.00000824    0.00000299
     atom    5 type  1   force =     0.00000315   -0.00000210    0.00000433
     atom    6 type  1   force =    -0.00000436    0.00000255    0.00001101
     atom    7 type  1   force =     0.00000975   -0.00000152   -0.00000511
     atom    8 type  1   force =     0.00000164   -0.00000217   -0.00000139
     atom    9 type  1   force =     0.00000978   -0.00002020    0.00000856
     atom   10 type  1   force =     0.00000658    0.00000003    0.00000495
     atom   11 type  1   force =    -0.00001610    0.00000600    0.00001168
     atom   12 type  1   force =    -0.00000697   -0.00001864   -0.00000790
     atom   13 type  1   force =     0.00001979    0.00003115   -0.00002549
     atom   14 type  1   force =    -0.00001448    0.00002835   -0.00001178
     atom   15 type  1   force =     0.00003809   -0.00002339    0.00000284
     atom   16 type  1   force =    -0.00000030   -0.00002787   -0.00002065
     atom   17 type  1   force =     0.00002580    0.00001664    0.00003897
     atom   18 type  1   force =     0.00003687    0.00000088   -0.00002119
     atom   19 type  1   force =    -0.00000339    0.00000485   -0.00000160
     atom   20 type  1   force =    -0.00000967    0.00000421    0.00001160
     atom   21 type  1   force =     0.00000141    0.00001523   -0.00000437
     atom   22 type  1   force =     0.00000749    0.00000959    0.00000653
     atom   23 type  1   force =    -0.00001979    0.00000965    0.00001532
     atom   24 type  1   force =    -0.00001606   -0.00003086   -0.00000783
     atom   25 type  1   force =     0.00000208   -0.00000121    0.00000028
     atom   26 type  1   force =    -0.00000595    0.00000457   -0.00000180
     atom   27 type  1   force =     0.00000366    0.00001965   -0.00000042
     atom   28 type  1   force =    -0.00002501    0.00000295   -0.00000332
     atom   29 type  1   force =    -0.00001774    0.00000200    0.00000043
     atom   30 type  1   force =    -0.00000368   -0.00000361    0.00001001
     atom   31 type  1   force =     0.00001313    0.00000965   -0.00001016
     atom   32 type  1   force =     0.00000718    0.00002199    0.00000666
     atom   33 type  1   force =    -0.00000190   -0.00000679   -0.00000471
     atom   34 type  1   force =    -0.00000058   -0.00000834   -0.00000196
     atom   35 type  1   force =    -0.00002038   -0.00002634   -0.00001122
     atom   36 type  1   force =     0.00001805   -0.00003197   -0.00000517
     atom   37 type  1   force =    -0.00002008    0.00000811   -0.00000431
     atom   38 type  1   force =    -0.00001392   -0.00001466   -0.00000299
     atom   39 type  1   force =    -0.00002105   -0.00001308   -0.00000878
     atom   40 type  1   force =    -0.00000670    0.00000787   -0.00001782
     atom   41 type  1   force =     0.00001130   -0.00001090    0.00001314
     atom   42 type  1   force =    -0.00001159   -0.00002099    0.00000260
     atom   43 type  1   force =     0.00000031    0.00000271    0.00000679
     atom   44 type  1   force =    -0.00002067    0.00000622   -0.00000022
     atom   45 type  2   force =    -0.00008822   -0.00015012    0.00010490
     atom   46 type  2   force =     0.00003762    0.00008260    0.00001274
     atom   47 type  2   force =    -0.00008855    0.00001871    0.00009680
     atom   48 type  2   force =     0.00013162   -0.00006476   -0.00005791
     atom   49 type  2   force =     0.00012887   -0.00005478    0.00014834
     atom   50 type  2   force =    -0.00014353   -0.00001442    0.00005036
     atom   51 type  2   force =    -0.00001043    0.00024491   -0.00010857
     atom   52 type  2   force =     0.00014390   -0.00022694   -0.00007587
     atom   53 type  2   force =     0.00024407    0.00007127    0.00007710
     atom   54 type  2   force =    -0.00006038    0.00006989    0.00004948
     atom   55 type  2   force =     0.00005612    0.00016126    0.00009209
     atom   56 type  2   force =    -0.00012459   -0.00001843    0.00007756
     atom   57 type  2   force =    -0.00003597    0.00000641   -0.00014718
     atom   58 type  2   force =    -0.00007042    0.00003063   -0.00001483
     atom   59 type  2   force =    -0.00013454    0.00000526    0.00002272
     atom   60 type  2   force =     0.00009370    0.00017905    0.00002243
     atom   61 type  2   force =     0.00001739   -0.00005386   -0.00006752
     atom   62 type  2   force =    -0.00006025   -0.00023679   -0.00008537
     atom   63 type  2   force =    -0.00014568   -0.00003518   -0.00003450
     atom   64 type  2   force =    -0.00011738   -0.00007304   -0.00013491
     atom   65 type  2   force =     0.00002823   -0.00012244    0.00008937
     atom   66 type  2   force =     0.00002631    0.00002704    0.00005947

     Total force =     0.526335     Total SCF correction =     0.000852


     Computing stress (Cartesian axis) and pressure


     negative rho (up, down):  5.004E-01 0.000E+00
          total   stress  (Ry/bohr**3)                   (kbar)     P=       -2.85
  -0.00001904   0.00000019  -0.00000029           -2.80        0.03       -0.04
   0.00000019  -0.00001978  -0.00000049            0.03       -2.91       -0.07
  -0.00000029  -0.00000049  -0.00001924           -0.04       -0.07       -2.83


     init_run     :      7.52s CPU      7.91s WALL (       1 calls)
     electrons    :     73.45s CPU     78.15s WALL (       1 calls)
     forces       :      5.63s CPU      5.91s WALL (       1 calls)
     stress       :     16.83s CPU     17.47s WALL (       1 calls)

     Called by init_run:
     wfcinit      :      2.78s CPU      2.94s WALL (       1 calls)
     potinit      :      1.30s CPU      1.35s WALL (       1 calls)
     hinit0       :      0.98s CPU      1.06s WALL (       1 calls)

     Called by electrons:
     c_bands      :     49.39s CPU     51.70s WALL (      10 calls)
     sum_band     :     13.46s CPU     14.51s WALL (      10 calls)
     v_of_rho     :      6.52s CPU      7.02s WALL (      11 calls)
     newd         :      2.86s CPU      3.69s WALL (      11 calls)
     PAW_pot      :      1.02s CPU      1.03s WALL (      11 calls)
     mix_rho      :      0.99s CPU      1.08s WALL (      10 calls)

     Called by c_bands:
     init_us_2    :      0.67s CPU      0.69s WALL (      21 calls)
     init_us_2:cp :      0.67s CPU      0.69s WALL (      21 calls)
     regterg      :     48.50s CPU     50.80s WALL (      10 calls)

     Called by *egterg:
     rdiaghg      :      0.23s CPU      0.24s WALL (      32 calls)
     h_psi        :     43.26s CPU     45.21s WALL (      33 calls)
     s_psi        :      1.43s CPU      1.43s WALL (      33 calls)
     g_psi        :      0.14s CPU      0.14s WALL (      22 calls)

     Called by h_psi:
     h_psi:calbec :      1.36s CPU      1.37s WALL (      33 calls)
     vloc_psi     :     40.09s CPU     42.01s WALL (      33 calls)
     add_vuspsi   :      1.43s CPU      1.43s WALL (      33 calls)

     General routines
     calbec       :      2.06s CPU      2.08s WALL (      48 calls)
     fft          :      3.69s CPU      4.19s WALL (     119 calls)
     ffts         :      0.24s CPU      0.27s WALL (      10 calls)
     fftw         :     35.28s CPU     37.45s WALL (    2950 calls)

     Parallel routines

     PWSCF        :   1m43.59s CPU   1m49.65s WALL


   This run was terminated on:  23:29:36  27Mar2024            

=------------------------------------------------------------------------------=
   JOB DONE.
=------------------------------------------------------------------------------=
