
     Program PWSCF v.7.2 starts on 27Mar2024 at 11:45:31 

     This program is part of the open-source Quantum ESPRESSO suite
     for quantum simulation of materials; please cite
         "P. Giannozzi et al., J. Phys.:Condens. Matter 21 395502 (2009);
         "P. Giannozzi et al., J. Phys.:Condens. Matter 29 465901 (2017);
         "P. Giannozzi et al., J. Chem. Phys. 152 154105 (2020);
          URL http://www.quantum-espresso.org", 
     in publications or presentations arising from this work. More details at
     http://www.quantum-espresso.org/quote

     Parallel version (MPI), running on    32 processors

     MPI processes distributed on     1 nodes
     170076 MiB available memory on the printing compute node when the environment starts

     Reading input from pw-wt-271.in
Warning: card &CELL ignored
Warning: card / ignored

     Current dimensions of program PWSCF are:
     Max number of different atomic species (ntypx) = 10
     Max number of k-points (npk) =  40000
     Max angular momentum in pseudopotentials (lmaxx) =  4
     file O.pbe-n-kjpaw_psl.0.1.UPF: wavefunction(s)  2P renormalized

     IMPORTANT: XC functional enforced from input :
     Exchange-correlation= PBE
                           (   1   4   3   4   0   0   0)
     Any further DFT definition will be discarded
     Please, verify this is what you really want


     gamma-point specific algorithms are used

     R & G space division:  proc/nbgrp/npool/nimage =      32
     Subspace diagonalization in iterative solution of the eigenvalue problem:
     a serial algorithm will be used


     Parallelization info
     --------------------
     sticks:   dense  smooth     PW     G-vecs:    dense   smooth      PW
     Min        1707    1707    426               301015   301015   37634
     Max        1710    1710    428               301034   301034   37648
     Sum       54693   54693  13673              9632757  9632757 1204469

     Using Slab Decomposition



     bravais-lattice index     =            0
     lattice parameter (alat)  =      75.7119  a.u.
     unit-cell volume          =  434002.3113 (a.u.)^3
     number of atoms/cell      =           66
     number of atomic types    =            2
     number of electrons       =       176.00
     number of Kohn-Sham states=           88
     kinetic-energy cutoff     =      30.0000  Ry
     charge density cutoff     =     120.0000  Ry
     scf convergence threshold =      1.0E-06
     mixing beta               =       0.5000
     number of iterations used =            8  plain     mixing
     Exchange-correlation= PBE
                           (   1   4   3   4   0   0   0)

     celldm(1)=  75.711877  celldm(2)=   0.000000  celldm(3)=   0.000000
     celldm(4)=   0.000000  celldm(5)=   0.000000  celldm(6)=   0.000000

     crystal axes: (cart. coord. in units of alat)
               a(1) = (   1.000000   0.000000   0.000000 )  
               a(2) = (   0.000000   1.000000   0.000000 )  
               a(3) = (   0.000000   0.000000   1.000000 )  

     reciprocal axes: (cart. coord. in units 2 pi/alat)
               b(1) = (  1.000000  0.000000  0.000000 )  
               b(2) = (  0.000000  1.000000  0.000000 )  
               b(3) = (  0.000000  0.000000  1.000000 )  


     PseudoPot. # 1 for H  read from file:
     /share/pfaendtnergroup/rverma7/QE_PP/H.pbe-rrkjus_psl.1.0.0.UPF
     MD5 check sum: f52b6d4d1c606e5624b1dc7b2218f220
     Pseudo is Ultrasoft, Zval =  1.0
     Generated using "atomic" code by A. Dal Corso  v.5.1
     Using radial grid of  929 points,  2 beta functions with: 
                l(1) =   0
                l(2) =   0
     Q(r) pseudized with 0 coefficients 


     PseudoPot. # 2 for O  read from file:
     /share/pfaendtnergroup/rverma7/QE_PP/O.pbe-n-kjpaw_psl.0.1.UPF
     MD5 check sum: 0234752ac141de4415c5fc33072bef88
     Pseudo is Projector augmented-wave + core cor, Zval =  6.0
     Generated using "atomic" code by A. Dal Corso  v.5.0.99 svn rev. 10869
     Shape of augmentation charge: BESSEL
     Using radial grid of 1095 points,  4 beta functions with: 
                l(1) =   0
                l(2) =   0
                l(3) =   1
                l(4) =   1
     Q(r) pseudized with 0 coefficients 


     atomic species   valence    mass     pseudopotential
        H              1.00     1.00800     H ( 1.00)
        O              6.00    15.99900     O ( 1.00)

     No symmetry found



   Cartesian axes

     site n.     atom                  positions (alat units)
         1           H   tau(   1) = (   0.2282042   0.2346936   0.5512043  )
         2           H   tau(   2) = (   0.2325721   0.2132285   0.5188818  )
         3           H   tau(   3) = (   0.2288781   0.2055160   0.4083365  )
         4           H   tau(   4) = (   0.2349183   0.1675028   0.3898415  )
         5           H   tau(   5) = (   0.2985898   0.3101460   0.3535505  )
         6           H   tau(   6) = (   0.2731561   0.2771247   0.3589417  )
         7           H   tau(   7) = (   0.3527019   0.2146512   0.3615375  )
         8           H   tau(   8) = (   0.3901660   0.2227381   0.3653313  )
         9           H   tau(   9) = (   0.2579808   0.3149382   0.4027206  )
        10           H   tau(  10) = (   0.2596531   0.3058280   0.4420816  )
        11           H   tau(  11) = (   0.2844378   0.2363659   0.4686884  )
        12           H   tau(  12) = (   0.2587046   0.2512917   0.4933733  )
        13           H   tau(  13) = (   0.4019219   0.3567702   0.3913890  )
        14           H   tau(  14) = (   0.3935854   0.3194060   0.3966055  )
        15           H   tau(  15) = (   0.2850867   0.2907276   0.2569824  )
        16           H   tau(  16) = (   0.2807937   0.3110695   0.2928741  )
        17           H   tau(  17) = (   0.3544740   0.2835892   0.4285786  )
        18           H   tau(  18) = (   0.3721952   0.2638962   0.3952577  )
        19           H   tau(  19) = (   0.2840634   0.1563709   0.3078997  )
        20           H   tau(  20) = (   0.2871833   0.1603145   0.3476101  )
        21           H   tau(  21) = (   0.2042930   0.2325471   0.3757644  )
        22           H   tau(  22) = (   0.1966305   0.1971047   0.3576189  )
        23           H   tau(  23) = (   0.4472981   0.2387121   0.4443529  )
        24           H   tau(  24) = (   0.4122800   0.2555098   0.4273056  )
        25           H   tau(  25) = (   0.1894422   0.2513166   0.4292025  )
        26           H   tau(  26) = (   0.2287782   0.2570074   0.4249844  )
        27           H   tau(  27) = (   0.3072507   0.2989642   0.4225134  )
        28           H   tau(  28) = (   0.3032322   0.2794709   0.4574816  )
        29           H   tau(  29) = (   0.1988519   0.1274429   0.3637839  )
        30           H   tau(  30) = (   0.2283040   0.1520529   0.3485836  )
        31           H   tau(  31) = (   0.2264820   0.1642331   0.4946462  )
        32           H   tau(  32) = (   0.2546861   0.1743167   0.4738799  )
        33           H   tau(  33) = (   0.3317359   0.3138650   0.3182578  )
        34           H   tau(  34) = (   0.3250468   0.3546737   0.3133408  )
        35           H   tau(  35) = (   0.4339948   0.2265818   0.3879945  )
        36           H   tau(  36) = (   0.4450768   0.2304256   0.3505803  )
        37           H   tau(  37) = (   0.3621365   0.2713840   0.3417696  )
        38           H   tau(  38) = (   0.3823786   0.3076501   0.3454387  )
        39           H   tau(  39) = (   0.2825908   0.1917135   0.4321727  )
        40           H   tau(  40) = (   0.3236990   0.1901660   0.4380881  )
        41           H   tau(  41) = (   0.2333708   0.2358667   0.3330338  )
        42           H   tau(  42) = (   0.2575814   0.2627980   0.3099713  )
        43           H   tau(  43) = (   0.2787470   0.1997005   0.3800324  )
        44           H   tau(  44) = (   0.2854611   0.2195432   0.3473106  )
        45           O   tau(  45) = (   0.2293773   0.2355422   0.5262698  )
        46           O   tau(  46) = (   0.2448272   0.1845501   0.4076875  )
        47           O   tau(  47) = (   0.2865094   0.2950206   0.3699988  )
        48           O   tau(  48) = (   0.3663297   0.2347435   0.3620367  )
        49           O   tau(  49) = (   0.2434045   0.3090977   0.4224635  )
        50           O   tau(  50) = (   0.2775240   0.2592288   0.4772994  )
        51           O   tau(  51) = (   0.4040185   0.3343317   0.3797329  )
        52           O   tau(  52) = (   0.2749782   0.2888556   0.2786971  )
        53           O   tau(  53) = (   0.3765880   0.2791713   0.4152003  )
        54           O   tau(  54) = (   0.2748034   0.1479346   0.3289155  )
        55           O   tau(  55) = (   0.2040933   0.2211406   0.3537252  )
        56           O   tau(  56) = (   0.4346936   0.2448521   0.4223886  )
        57           O   tau(  57) = (   0.2102084   0.2419818   0.4176214  )
        58           O   tau(  58) = (   0.3201298   0.2947960   0.4439536  )
        59           O   tau(  59) = (   0.2110570   0.1497317   0.3670785  )
        60           O   tau(  60) = (   0.2457756   0.1771621   0.4971921  )
        61           O   tau(  61) = (   0.3111194   0.3320354   0.3129165  )
        62           O   tau(  62) = (   0.4313241   0.2158992   0.3635842  )
        63           O   tau(  63) = (   0.3614127   0.2969924   0.3363035  )
        64           O   tau(  64) = (   0.3017846   0.1935355   0.4498939  )
        65           O   tau(  65) = (   0.2585548   0.2429552   0.3280419  )
        66           O   tau(  66) = (   0.2966180   0.2023462   0.3626856  )

     number of k points=     1
                       cart. coord. in units 2pi/alat
        k(    1) = (   0.0000000   0.0000000   0.0000000), wk =   2.0000000

     Dense  grid:  4816379 G-vectors     FFT dimensions: ( 270, 270, 270)

     Estimated max dynamical RAM per process >     612.29 MB

     Estimated total dynamical RAM >      19.13 GB

     Check: negative core charge=   -0.000006

     Initial potential from superposition of free atoms

     starting charge     175.9995, renormalised to     176.0000

     negative rho (up, down):  3.716E-01 0.000E+00
     Starting wfcs are  132 randomized atomic wfcs
     Checking if some PAW data can be deallocated... 

     total cpu time spent up to now is        8.7 secs

     Self-consistent Calculation

     iteration #  1     ecut=    30.00 Ry     beta= 0.50
     Davidson diagonalization with overlap
     ethr =  1.00E-02,  avg # of iterations =  2.0

     negative rho (up, down):  4.393E-01 0.000E+00

     total cpu time spent up to now is       17.8 secs

     total energy              =    -965.73668802 Ry
     estimated scf accuracy    <       6.90142151 Ry

     iteration #  2     ecut=    30.00 Ry     beta= 0.50
     Davidson diagonalization with overlap
     ethr =  3.92E-03,  avg # of iterations =  2.0

     negative rho (up, down):  4.597E-01 0.000E+00

     total cpu time spent up to now is       27.3 secs

     total energy              =    -967.67719540 Ry
     estimated scf accuracy    <       1.01268514 Ry

     iteration #  3     ecut=    30.00 Ry     beta= 0.50
     Davidson diagonalization with overlap
     ethr =  5.75E-04,  avg # of iterations =  2.0

     negative rho (up, down):  5.059E-01 0.000E+00

     total cpu time spent up to now is       35.6 secs

     total energy              =    -967.72973679 Ry
     estimated scf accuracy    <       0.13115790 Ry

     iteration #  4     ecut=    30.00 Ry     beta= 0.50
     Davidson diagonalization with overlap
     ethr =  7.45E-05,  avg # of iterations =  3.0

     negative rho (up, down):  5.052E-01 0.000E+00

     total cpu time spent up to now is       45.4 secs

     total energy              =    -967.75420589 Ry
     estimated scf accuracy    <       0.04294734 Ry

     iteration #  5     ecut=    30.00 Ry     beta= 0.50
     Davidson diagonalization with overlap
     ethr =  2.44E-05,  avg # of iterations =  2.0

     negative rho (up, down):  5.042E-01 0.000E+00

     total cpu time spent up to now is       53.1 secs

     total energy              =    -967.75475568 Ry
     estimated scf accuracy    <       0.00800179 Ry

     iteration #  6     ecut=    30.00 Ry     beta= 0.50
     Davidson diagonalization with overlap
     ethr =  4.55E-06,  avg # of iterations =  2.0

     negative rho (up, down):  5.033E-01 0.000E+00

     total cpu time spent up to now is       61.3 secs

     total energy              =    -967.75497273 Ry
     estimated scf accuracy    <       0.00154067 Ry

     iteration #  7     ecut=    30.00 Ry     beta= 0.50
     Davidson diagonalization with overlap
     ethr =  8.75E-07,  avg # of iterations =  2.0

     negative rho (up, down):  5.031E-01 0.000E+00

     total cpu time spent up to now is       70.3 secs

     total energy              =    -967.75526629 Ry
     estimated scf accuracy    <       0.00005402 Ry

     iteration #  8     ecut=    30.00 Ry     beta= 0.50
     Davidson diagonalization with overlap
     ethr =  3.07E-08,  avg # of iterations =  3.0

     negative rho (up, down):  5.031E-01 0.000E+00

     total cpu time spent up to now is       80.5 secs

     total energy              =    -967.75529059 Ry
     estimated scf accuracy    <       0.00001510 Ry

     iteration #  9     ecut=    30.00 Ry     beta= 0.50
     Davidson diagonalization with overlap
     ethr =  8.58E-09,  avg # of iterations =  2.0

     negative rho (up, down):  5.032E-01 0.000E+00

     total cpu time spent up to now is       88.1 secs

     total energy              =    -967.75528942 Ry
     estimated scf accuracy    <       0.00000579 Ry

     iteration # 10     ecut=    30.00 Ry     beta= 0.50
     Davidson diagonalization with overlap
     ethr =  3.29E-09,  avg # of iterations =  2.0

     negative rho (up, down):  5.032E-01 0.000E+00

     total cpu time spent up to now is       96.8 secs

     End of self-consistent calculation

          k = 0.0000 0.0000 0.0000 (602235 PWs)   bands (ev):

   -26.5566 -26.3163 -26.2379 -25.4791 -25.3563 -25.2745 -25.1302 -25.0014
   -24.9355 -24.8809 -24.7278 -24.6308 -24.5963 -24.5811 -24.4538 -24.3715
   -24.3103 -24.2431 -24.1107 -23.9272 -23.7379 -23.6290 -14.6347 -13.9232
   -13.5611 -13.4297 -13.3955 -13.2334 -12.9655 -12.8886 -12.8309 -12.8188
   -12.6967 -12.6892 -12.6512 -12.5917 -12.4041 -12.1734 -12.1560 -12.0678
   -11.9899 -11.8810 -11.8570 -11.6864 -11.4984 -10.6812 -10.5741 -10.4790
   -10.2933 -10.2723 -10.0597  -9.7434  -9.6193  -9.4506  -9.3993  -9.2063
    -9.0946  -9.0499  -9.0130  -8.8350  -8.6867  -8.4811  -8.4576  -8.3662
    -8.2685  -8.1649  -7.9888  -7.9178  -7.7676  -7.5296  -7.5021  -7.3873
    -7.3581  -7.3088  -7.2818  -7.2479  -7.1940  -7.1530  -6.9942  -6.9547
    -6.7508  -6.7165  -6.6917  -6.6482  -6.6029  -6.5267  -6.4441  -6.3468

     highest occupied level (ev):    -6.3468

!    total energy              =    -967.75528993 Ry
     estimated scf accuracy    <       0.00000044 Ry

     The total energy is the sum of the following terms:
     one-electron contribution =   -5739.08720695 Ry
     hartree contribution      =    2904.78854121 Ry
     xc contribution           =    -193.57859741 Ry
     ewald contribution        =    2269.44409864 Ry
     one-center paw contrib.   =    -209.32212542 Ry

     convergence has been achieved in  10 iterations

     negative rho (up, down):  5.032E-01 0.000E+00

     Forces acting on atoms (cartesian axes, Ry/au):

     atom    1 type  1   force =     0.00734784    0.00371149   -0.04247012
     atom    2 type  1   force =     0.01591295   -0.07676888   -0.02376936
     atom    3 type  1   force =     0.04522366   -0.07401070    0.00654817
     atom    4 type  1   force =     0.01461415    0.04930857    0.07836785
     atom    5 type  1   force =    -0.03474066   -0.03634651    0.01322245
     atom    6 type  1   force =     0.01741736    0.01112564   -0.01682312
     atom    7 type  1   force =    -0.04723986    0.00008653   -0.00071934
     atom    8 type  1   force =    -0.03812901    0.05612976   -0.03452518
     atom    9 type  1   force =    -0.00936524   -0.02295464    0.01782772
     atom   10 type  1   force =    -0.04460620    0.01499984   -0.05760570
     atom   11 type  1   force =     0.00934472    0.02902388    0.00491475
     atom   12 type  1   force =     0.04321681    0.04320928   -0.01668928
     atom   13 type  1   force =     0.00758747   -0.04840899   -0.03741079
     atom   14 type  1   force =    -0.00247199   -0.02225096    0.00192162
     atom   15 type  1   force =     0.01330166    0.00929426   -0.01760915
     atom   16 type  1   force =     0.00408187   -0.07779946   -0.07264598
     atom   17 type  1   force =     0.02441212   -0.01699959   -0.02682349
     atom   18 type  1   force =    -0.02015063    0.02297881    0.03893268
     atom   19 type  1   force =    -0.00115504    0.00633967    0.01114593
     atom   20 type  1   force =    -0.01421356    0.00665807   -0.05166374
     atom   21 type  1   force =    -0.00386756   -0.00320234   -0.00010812
     atom   22 type  1   force =     0.01914239    0.05401426   -0.00735697
     atom   23 type  1   force =    -0.05951004    0.02516910   -0.08340626
     atom   24 type  1   force =     0.00605642    0.00826484    0.00510114
     atom   25 type  1   force =     0.05885264   -0.02542256   -0.02971292
     atom   26 type  1   force =    -0.01435995    0.01325901   -0.01096046
     atom   27 type  1   force =     0.03055440   -0.01158673    0.02920926
     atom   28 type  1   force =     0.05300521    0.04859164   -0.02607771
     atom   29 type  1   force =     0.04485618    0.06180304    0.00713123
     atom   30 type  1   force =    -0.01312069   -0.02458996    0.00182688
     atom   31 type  1   force =    -0.08509813   -0.05281387    0.00856716
     atom   32 type  1   force =     0.01212639    0.01775189    0.03608679
     atom   33 type  1   force =    -0.04777555    0.06163821   -0.00761529
     atom   34 type  1   force =    -0.06947309   -0.09745649   -0.00244426
     atom   35 type  1   force =     0.00203067   -0.03159415   -0.04890751
     atom   36 type  1   force =     0.01962648    0.02647660   -0.03379610
     atom   37 type  1   force =     0.00188226    0.06312955   -0.01026861
     atom   38 type  1   force =    -0.03792552   -0.00648635   -0.00775880
     atom   39 type  1   force =     0.06150043   -0.00477114    0.03113855
     atom   40 type  1   force =    -0.04904119    0.00913935    0.01267891
     atom   41 type  1   force =     0.07417324    0.00979944   -0.00729916
     atom   42 type  1   force =     0.01979887   -0.08570644    0.04925789
     atom   43 type  1   force =     0.01310048   -0.00064925   -0.00455179
     atom   44 type  1   force =     0.01276933   -0.01956987    0.00696958
     atom   45 type  2   force =    -0.01839907    0.08177232    0.05635641
     atom   46 type  2   force =    -0.03321291    0.02876489   -0.02262007
     atom   47 type  2   force =     0.01414522    0.03487688    0.00670669
     atom   48 type  2   force =     0.08832698   -0.04938392    0.02055810
     atom   49 type  2   force =     0.04266929   -0.00679204    0.04445894
     atom   50 type  2   force =    -0.05807114   -0.09500741    0.02554056
     atom   51 type  2   force =    -0.00512535    0.05743804    0.03488361
     atom   52 type  2   force =    -0.02151745    0.06784581    0.08823138
     atom   53 type  2   force =     0.00236796   -0.01229940   -0.00538297
     atom   54 type  2   force =    -0.00480458   -0.01139779    0.03509054
     atom   55 type  2   force =    -0.04462029   -0.05078358   -0.00229696
     atom   56 type  2   force =     0.04681577   -0.02032033    0.08132615
     atom   57 type  2   force =    -0.04513462    0.03661863    0.04254808
     atom   58 type  2   force =    -0.07072041   -0.01954918   -0.01284706
     atom   59 type  2   force =    -0.02434274   -0.05240250   -0.05584814
     atom   60 type  2   force =     0.07063478    0.02198024   -0.04425967
     atom   61 type  2   force =     0.12800987    0.04232730    0.02721025
     atom   62 type  2   force =    -0.02134657   -0.00429488    0.09202240
     atom   63 type  2   force =     0.02797385   -0.05264880    0.00429313
     atom   64 type  2   force =    -0.02925397   -0.00064379   -0.05062313
     atom   65 type  2   force =    -0.07384335    0.08494435   -0.05732491
     atom   66 type  2   force =    -0.01024339    0.00644129    0.01014731
     The non-local contrib.  to forces
     atom    1 type  1   force =     0.00567326    0.00034029   -0.10080220
     atom    2 type  1   force =    -0.01700982    0.11354494    0.04198370
     atom    3 type  1   force =     0.04731920   -0.06414634   -0.00410277
     atom    4 type  1   force =     0.02491308    0.04817413    0.04708758
     atom    5 type  1   force =    -0.04654004   -0.05844222    0.05796670
     atom    6 type  1   force =     0.05490403    0.07452525    0.04147607
     atom    7 type  1   force =     0.06477886    0.09276228    0.00262796
     atom    8 type  1   force =    -0.06405297    0.03198707   -0.00864517
     atom    9 type  1   force =    -0.05354872   -0.02241481    0.07867370
     atom   10 type  1   force =    -0.05483261    0.01225692   -0.07190212
     atom   11 type  1   force =    -0.02770555    0.08547700    0.03267985
     atom   12 type  1   force =     0.06215348    0.02503996   -0.05399448
     atom   13 type  1   force =     0.00653171   -0.08446313   -0.04203652
     atom   14 type  1   force =     0.04298953    0.06469513   -0.06880907
     atom   15 type  1   force =    -0.04754709   -0.00616931    0.10517975
     atom   16 type  1   force =    -0.01404843   -0.05935204   -0.04059037
     atom   17 type  1   force =     0.06337378   -0.01469198   -0.04152755
     atom   18 type  1   force =     0.01404527    0.05511744    0.07259025
     atom   19 type  1   force =    -0.03974562   -0.03556967    0.09520045
     atom   20 type  1   force =    -0.04289550   -0.04321217   -0.06819335
     atom   21 type  1   force =    -0.00135590   -0.05036960   -0.08949042
     atom   22 type  1   force =     0.02786764    0.08944012   -0.01147551
     atom   23 type  1   force =    -0.04401744    0.02059812   -0.07096096
     atom   24 type  1   force =     0.08420727   -0.04102182   -0.01494273
     atom   25 type  1   force =     0.07735333   -0.03333521   -0.04164183
     atom   26 type  1   force =    -0.07751251   -0.06125447   -0.02867099
     atom   27 type  1   force =     0.04712433   -0.01671700    0.08230763
     atom   28 type  1   force =     0.04626225    0.04273551   -0.04044972
     atom   29 type  1   force =     0.04602370    0.07943614    0.00982893
     atom   30 type  1   force =    -0.06669197   -0.01124234    0.06891304
     atom   31 type  1   force =     0.10620354    0.07096734    0.01244129
     atom   32 type  1   force =    -0.03784466    0.01079000    0.09235624
     atom   33 type  1   force =    -0.04120491    0.03885833   -0.00979359
     atom   34 type  1   force =    -0.04037915   -0.06771025   -0.00090323
     atom   35 type  1   force =    -0.00671789   -0.02651239   -0.06583610
     atom   36 type  1   force =    -0.06907565   -0.07059424    0.06625285
     atom   37 type  1   force =     0.00008458    0.08057335   -0.01609757
     atom   38 type  1   force =    -0.08024501   -0.04373183   -0.03502203
     atom   39 type  1   force =     0.06345447    0.00560110    0.05427195
     atom   40 type  1   force =    -0.08822640    0.01303143    0.04370197
     atom   41 type  1   force =     0.06912651    0.02085437   -0.01356435
     atom   42 type  1   force =     0.00080011   -0.05519962    0.05143834
     atom   43 type  1   force =     0.06946939    0.01140425   -0.06905284
     atom   44 type  1   force =     0.03676700   -0.05986473    0.05423126
     atom   45 type  2   force =     0.25021596   -1.65099621    1.31147215
     atom   46 type  2   force =    -1.25767755    0.39617481   -0.98267285
     atom   47 type  2   force =    -0.20191156   -0.10778282   -1.82542905
     atom   48 type  2   force =     0.31362709   -1.87423601    0.16712111
     atom   49 type  2   force =     2.17105361    0.07416981    0.06206281
     atom   50 type  2   force =    -0.65909156   -1.84204439    0.23718401
     atom   51 type  2   force =    -0.94343561    0.63417720    1.90046586
     atom   52 type  2   force =     1.02806947    1.42375263   -0.80342196
     atom   53 type  2   force =    -1.34570630   -0.78069054   -0.51442316
     atom   54 type  2   force =     1.35782789    1.46362452   -0.36447870
     atom   55 type  2   force =    -0.35687350   -0.86354693    1.67029293
     atom   56 type  2   force =    -0.56768057    0.00311307    1.75353332
     atom   57 type  2   force =    -0.19183288    1.48089273    1.18815219
     atom   58 type  2   force =    -1.65713004   -0.73923759   -0.83590165
     atom   59 type  2   force =     0.38732967   -1.36953525   -1.39809683
     atom   60 type  2   force =    -1.03976052   -1.07037382   -1.81865341
     atom   61 type  2   force =     1.74934371    0.55925843    0.26674431
     atom   62 type  2   force =     0.94348586    1.83243126    0.31697957
     atom   63 type  2   force =     1.26877090   -0.71342973    0.69929998
     atom   64 type  2   force =     0.34010473   -0.26697987   -2.06861850
     atom   65 type  2   force =    -1.33562153    0.83239551   -0.61094527
     atom   66 type  2   force =    -1.78427216    0.68789316    0.20468671
     The ionic contribution  to forces
     atom    1 type  1   force =    -0.84639919    0.15022531    5.25002407
     atom    2 type  1   force =    -0.67979103   -3.17504918    1.11872513
     atom    3 type  1   force =    -2.73532741    0.75558537    0.82587145
     atom    4 type  1   force =    -1.27049912   -3.30725060   -0.69192540
     atom    5 type  1   force =     0.91297197    3.44811183   -1.88436529
     atom    6 type  1   force =    -2.28541841   -0.92360147   -1.64377936
     atom    7 type  1   force =    -0.68157942   -4.18433853   -0.86197891
     atom    8 type  1   force =     2.95348771   -2.36715709   -0.43592164
     atom    9 type  1   force =     0.23764521    3.17015407   -1.92356123
     atom   10 type  1   force =     0.61812177    1.77663242    3.49330869
     atom   11 type  1   force =     1.11999172   -2.48388876    0.83339478
     atom   12 type  1   force =    -2.18827135    0.07617965    3.41553206
     atom   13 type  1   force =     0.97058040    4.78834330    1.63909306
     atom   14 type  1   force =     0.38950937    0.19768317    2.50945632
     atom   15 type  1   force =     1.24572923    0.59008198   -5.53191444
     atom   16 type  1   force =    -0.72459042    3.13740410   -0.86679416
     atom   17 type  1   force =    -0.45858921    1.01731690    2.56254190
     atom   18 type  1   force =     0.69371260   -1.37724079   -1.35187489
     atom   19 type  1   force =     1.53384066   -0.51456634   -4.87069314
     atom   20 type  1   force =     2.04590945   -1.29795377    1.00821193
     atom   21 type  1   force =    -2.56132320    1.82531642    1.63420928
     atom   22 type  1   force =    -3.50161315   -3.15653203   -0.73796251
     atom   23 type  1   force =     3.24505865   -1.05852880    3.73288799
     atom   24 type  1   force =    -0.47615800    0.89573842    2.19834009
     atom   25 type  1   force =    -5.01441749    1.63807272    2.19257517
     atom   26 type  1   force =     0.58729660    2.37067759    1.69065362
     atom   27 type  1   force =    -1.05138035    2.22469669   -1.51423078
     atom   28 type  1   force =    -0.47138206   -0.04547221    2.73474451
     atom   29 type  1   force =    -2.95076777   -4.60914718   -0.71547708
     atom   30 type  1   force =     0.59292576   -1.74112014   -3.30373999
     atom   31 type  1   force =    -4.16625720   -3.66700077    1.02404898
     atom   32 type  1   force =     0.60104123   -2.18790719   -1.30650900
     atom   33 type  1   force =     1.75472290    0.21771620   -1.67630873
     atom   34 type  1   force =     1.66548610    4.68631566   -1.12199909
     atom   35 type  1   force =     2.36421507   -0.31313172    1.64644130
     atom   36 type  1   force =     4.10210117    1.65615501   -3.09859813
     atom   37 type  1   force =     1.12678644   -1.98386019   -1.43261926
     atom   38 type  1   force =     3.93812101    2.37132204   -0.52598754
     atom   39 type  1   force =    -1.11467507   -1.62088935   -0.59403079
     atom   40 type  1   force =     4.15325738   -2.00517955   -0.31714040
     atom   41 type  1   force =    -3.37959482   -0.21030035   -1.81387236
     atom   42 type  1   force =    -1.40825605    1.88972189   -3.39620761
     atom   43 type  1   force =    -1.34733857   -1.30502648    1.74612242
     atom   44 type  1   force =    -0.28526340    0.85646316   -2.75538977
     atom   45 type  2   force =    -6.71291397    5.03665496   10.53617526
     atom   46 type  2   force =    -2.69665363  -10.35510275    6.23750305
     atom   47 type  2   force =    -2.25061855    9.02682573    1.06695927
     atom   48 type  2   force =     5.85718251   -3.53368024   -5.54176886
     atom   49 type  2   force =   -12.24779502   12.32678991    4.28574671
     atom   50 type  2   force =     0.36781118    6.49901905   11.96657152
     atom   51 type  2   force =    11.58619248   10.65704928   -3.38967642
     atom   52 type  2   force =    -5.43946539    1.29296992  -12.88717391
     atom   53 type  2   force =     9.86378195    4.92396153    8.03514924
     atom   54 type  2   force =    -0.82794417  -15.07361667   -8.60629325
     atom   55 type  2   force =   -14.55133316    0.95671926  -10.02145297
     atom   56 type  2   force =    13.67992769   -1.76506614    4.87539263
     atom   57 type  2   force =   -13.47479111    0.89542497    3.37289749
     atom   58 type  2   force =     6.17901420   10.25427145   10.77818210
     atom   59 type  2   force =   -11.18182981  -11.19224969   -1.02515933
     atom   60 type  2   force =    -1.27579504   -7.66811868   12.52102050
     atom   61 type  2   force =    -2.16278482   12.54432459   -8.87618359
     atom   62 type  2   force =    10.27321542  -10.01009890   -5.43340474
     atom   63 type  2   force =     5.88102516    6.29885585  -10.38958180
     atom   64 type  2   force =     6.34133247   -8.35019544   10.68753065
     atom   65 type  2   force =    -2.99935918   -0.66097120  -10.88455794
     atom   66 type  2   force =     8.53818107   -8.30853819   -4.19117684
     The local contribution  to forces
     atom    1 type  1   force =     0.84810142   -0.14685038   -5.19170925
     atom    2 type  1   force =     0.71274261    2.98473415   -1.18451659
     atom    3 type  1   force =     2.73325979   -0.76544248   -0.81526842
     atom    4 type  1   force =     1.26023617    3.30839655    0.72315832
     atom    5 type  1   force =    -0.90113625   -3.42599068    1.83955725
     atom    6 type  1   force =     2.24794028    0.86018956    1.58542271
     atom    7 type  1   force =     0.56959025    4.09164249    0.85859982
     atom    8 type  1   force =    -2.92752003    2.39129127    0.41001147
     atom    9 type  1   force =    -0.19341382   -3.17067737    1.86266448
     atom   10 type  1   force =    -0.60784283   -1.77388692   -3.47903005
     atom   11 type  1   force =    -1.08291822    2.42742551   -0.86120277
     atom   12 type  1   force =     2.16933408   -0.05802263   -3.37824136
     atom   13 type  1   force =    -0.96950086   -4.75228306   -1.63449866
     atom   14 type  1   force =    -0.43494633   -0.28460865   -2.43876054
     atom   15 type  1   force =    -1.18484904   -0.57460767    5.40908595
     atom   16 type  1   force =     0.74274741   -3.15584113    0.83470513
     atom   17 type  1   force =     0.41964048   -1.01962453   -2.54787462
     atom   18 type  1   force =    -0.72788708    1.34509727    1.31817377
     atom   19 type  1   force =    -1.49520822    0.55649809    4.78658261
     atom   20 type  1   force =    -2.01719213    1.34784299   -0.99170267
     atom   21 type  1   force =     2.55884098   -1.77813404   -1.54483379
     atom   22 type  1   force =     3.49290786    3.12107925    0.74205803
     atom   23 type  1   force =    -3.26052177    1.06310396   -3.74535945
     atom   24 type  1   force =     0.39803151   -0.84645190   -2.17832662
     atom   25 type  1   force =     4.99591988   -1.63013434   -2.18066307
     atom   26 type  1   force =    -0.52409513   -2.29613666   -1.67296345
     atom   27 type  1   force =     1.03481971   -2.21956011    1.46108554
     atom   28 type  1   force =     0.47814543    0.05133501   -2.72042000
     atom   29 type  1   force =     2.94961851    4.59149479    0.71273318
     atom   30 type  1   force =    -0.53931135    1.72778551    3.23660281
     atom   31 type  1   force =     3.97496883    3.54321787   -1.02796381
     atom   32 type  1   force =    -0.55105634    2.19486658    1.25019209
     atom   33 type  1   force =    -1.76127910   -0.19491946    1.67844553
     atom   34 type  1   force =    -1.69454840   -4.71605052    1.12042342
     atom   35 type  1   force =    -2.35544105    0.30806244   -1.62954916
     atom   36 type  1   force =    -4.01337043   -1.55906850    2.99851606
     atom   37 type  1   force =    -1.12495362    1.96640560    1.43841680
     atom   38 type  1   force =    -3.89574846   -2.33406001    0.55322937
     atom   39 type  1   force =     1.11270131    1.61052174    0.57079550
     atom   40 type  1   force =    -4.11397626    2.00128413    0.28602651
     atom   41 type  1   force =     3.38467313    0.19925993    1.82009439
     atom   42 type  1   force =     1.42727796   -1.92020493    3.39398562
     atom   43 type  1   force =     1.29096564    1.29297899   -1.68163638
     atom   44 type  1   force =     0.26126943   -0.81614577    2.70808647
     atom   45 type  2   force =     6.44666442   -3.31954382  -11.77678599
     atom   46 type  2   force =     3.90778211    9.99166079   -5.28697545
     atom   47 type  2   force =     2.46442409   -8.88516291    0.74762960
     atom   48 type  2   force =    -6.07857022    5.34004641    5.39699200
     atom   49 type  2   force =    10.14200905  -12.40715906   -4.30214851
     atom   50 type  2   force =     0.22584206   -4.77006815  -12.17535582
     atom   51 type  2   force =   -10.65731316  -11.22627579    1.54342979
     atom   52 type  2   force =     4.39984264   -2.63416212   13.77085543
     atom   53 type  2   force =    -8.52825392   -4.16366544   -7.53136066
     atom   54 type  2   force =    -0.52084847   13.61330076    9.00177153
     atom   55 type  2   force =    14.85909703   -0.15276199    8.36589189
     atom   56 type  2   force =   -13.07064859    1.74096201   -6.52857586
     atom   57 type  2   force =    13.61904883   -2.32482414   -4.50602747
     atom   58 type  2   force =    -4.60974319   -9.54202398   -9.96310945
     atom   59 type  2   force =    10.77266329   12.49480150    2.35209026
     atom   60 type  2   force =     2.37668801    8.75008962  -10.76498880
     atom   61 type  2   force =     0.55980774  -13.05417383    8.63952325
     atom   62 type  2   force =   -11.22918446    8.19132455    5.21140506
     atom   63 type  2   force =    -7.10912727   -5.64598097    9.70157200
     atom   64 type  2   force =    -6.70667919    8.61334821   -8.69155215
     atom   65 type  2   force =     4.24775160   -0.07675731   11.43075866
     atom   66 type  2   force =    -6.78097499    7.63410043    3.99906060
     The core correction contribution to forces
     atom    1 type  1   force =     0.00000000    0.00000000    0.00000000
     atom    2 type  1   force =     0.00000000    0.00000000    0.00000000
     atom    3 type  1   force =     0.00000000    0.00000000    0.00000000
     atom    4 type  1   force =     0.00000000    0.00000000    0.00000000
     atom    5 type  1   force =     0.00000000    0.00000000    0.00000000
     atom    6 type  1   force =     0.00000000    0.00000000    0.00000000
     atom    7 type  1   force =     0.00000000    0.00000000    0.00000000
     atom    8 type  1   force =     0.00000000    0.00000000    0.00000000
     atom    9 type  1   force =     0.00000000    0.00000000    0.00000000
     atom   10 type  1   force =     0.00000000    0.00000000    0.00000000
     atom   11 type  1   force =     0.00000000    0.00000000    0.00000000
     atom   12 type  1   force =     0.00000000    0.00000000    0.00000000
     atom   13 type  1   force =     0.00000000    0.00000000    0.00000000
     atom   14 type  1   force =     0.00000000    0.00000000    0.00000000
     atom   15 type  1   force =     0.00000000    0.00000000    0.00000000
     atom   16 type  1   force =     0.00000000    0.00000000    0.00000000
     atom   17 type  1   force =     0.00000000    0.00000000    0.00000000
     atom   18 type  1   force =     0.00000000    0.00000000    0.00000000
     atom   19 type  1   force =     0.00000000    0.00000000    0.00000000
     atom   20 type  1   force =     0.00000000    0.00000000    0.00000000
     atom   21 type  1   force =     0.00000000    0.00000000    0.00000000
     atom   22 type  1   force =     0.00000000    0.00000000    0.00000000
     atom   23 type  1   force =     0.00000000    0.00000000    0.00000000
     atom   24 type  1   force =     0.00000000    0.00000000    0.00000000
     atom   25 type  1   force =     0.00000000    0.00000000    0.00000000
     atom   26 type  1   force =     0.00000000    0.00000000    0.00000000
     atom   27 type  1   force =     0.00000000    0.00000000    0.00000000
     atom   28 type  1   force =     0.00000000    0.00000000    0.00000000
     atom   29 type  1   force =     0.00000000    0.00000000    0.00000000
     atom   30 type  1   force =     0.00000000    0.00000000    0.00000000
     atom   31 type  1   force =     0.00000000    0.00000000    0.00000000
     atom   32 type  1   force =     0.00000000    0.00000000    0.00000000
     atom   33 type  1   force =     0.00000000    0.00000000    0.00000000
     atom   34 type  1   force =     0.00000000    0.00000000    0.00000000
     atom   35 type  1   force =     0.00000000    0.00000000    0.00000000
     atom   36 type  1   force =     0.00000000    0.00000000    0.00000000
     atom   37 type  1   force =     0.00000000    0.00000000    0.00000000
     atom   38 type  1   force =     0.00000000    0.00000000    0.00000000
     atom   39 type  1   force =     0.00000000    0.00000000    0.00000000
     atom   40 type  1   force =     0.00000000    0.00000000    0.00000000
     atom   41 type  1   force =     0.00000000    0.00000000    0.00000000
     atom   42 type  1   force =     0.00000000    0.00000000    0.00000000
     atom   43 type  1   force =     0.00000000    0.00000000    0.00000000
     atom   44 type  1   force =     0.00000000    0.00000000    0.00000000
     atom   45 type  2   force =    -0.00231134    0.01556883   -0.01452730
     atom   46 type  2   force =     0.01333231   -0.00393708    0.00937135
     atom   47 type  2   force =     0.00222951    0.00097157    0.01733123
     atom   48 type  2   force =    -0.00382429    0.01826955   -0.00181006
     atom   49 type  2   force =    -0.02239424   -0.00060177   -0.00121020
     atom   50 type  2   force =     0.00733056    0.01792190   -0.00287196
     atom   51 type  2   force =     0.00939796   -0.00739141   -0.01921211
     atom   52 type  2   force =    -0.00987676   -0.01465660    0.00787285
     atom   53 type  2   force =     0.01244198    0.00802500    0.00516558
     atom   54 type  2   force =    -0.01370131   -0.01456281    0.00403600
     atom   55 type  2   force =     0.00449672    0.00872378   -0.01690379
     atom   56 type  2   force =     0.00521452    0.00066541   -0.01900084
     atom   57 type  2   force =     0.00245359   -0.01472144   -0.01242525
     atom   58 type  2   force =     0.01701971    0.00738929    0.00786319
     atom   59 type  2   force =    -0.00238917    0.01455006    0.01516667
     atom   60 type  2   force =     0.00940339    0.01028729    0.01823844
     atom   61 type  2   force =    -0.01822641   -0.00703437   -0.00289120
     atom   62 type  2   force =    -0.00877729   -0.01779592   -0.00298978
     atom   63 type  2   force =    -0.01255391    0.00787722   -0.00696126
     atom   64 type  2   force =    -0.00394304    0.00316031    0.02167019
     atom   65 type  2   force =     0.01332326   -0.00963641    0.00733844
     atom   66 type  2   force =     0.01656350   -0.00697306   -0.00235775
     The Hubbard contrib.    to forces
     atom    1 type  1   force =     0.00000000    0.00000000    0.00000000
     atom    2 type  1   force =     0.00000000    0.00000000    0.00000000
     atom    3 type  1   force =     0.00000000    0.00000000    0.00000000
     atom    4 type  1   force =     0.00000000    0.00000000    0.00000000
     atom    5 type  1   force =     0.00000000    0.00000000    0.00000000
     atom    6 type  1   force =     0.00000000    0.00000000    0.00000000
     atom    7 type  1   force =     0.00000000    0.00000000    0.00000000
     atom    8 type  1   force =     0.00000000    0.00000000    0.00000000
     atom    9 type  1   force =     0.00000000    0.00000000    0.00000000
     atom   10 type  1   force =     0.00000000    0.00000000    0.00000000
     atom   11 type  1   force =     0.00000000    0.00000000    0.00000000
     atom   12 type  1   force =     0.00000000    0.00000000    0.00000000
     atom   13 type  1   force =     0.00000000    0.00000000    0.00000000
     atom   14 type  1   force =     0.00000000    0.00000000    0.00000000
     atom   15 type  1   force =     0.00000000    0.00000000    0.00000000
     atom   16 type  1   force =     0.00000000    0.00000000    0.00000000
     atom   17 type  1   force =     0.00000000    0.00000000    0.00000000
     atom   18 type  1   force =     0.00000000    0.00000000    0.00000000
     atom   19 type  1   force =     0.00000000    0.00000000    0.00000000
     atom   20 type  1   force =     0.00000000    0.00000000    0.00000000
     atom   21 type  1   force =     0.00000000    0.00000000    0.00000000
     atom   22 type  1   force =     0.00000000    0.00000000    0.00000000
     atom   23 type  1   force =     0.00000000    0.00000000    0.00000000
     atom   24 type  1   force =     0.00000000    0.00000000    0.00000000
     atom   25 type  1   force =     0.00000000    0.00000000    0.00000000
     atom   26 type  1   force =     0.00000000    0.00000000    0.00000000
     atom   27 type  1   force =     0.00000000    0.00000000    0.00000000
     atom   28 type  1   force =     0.00000000    0.00000000    0.00000000
     atom   29 type  1   force =     0.00000000    0.00000000    0.00000000
     atom   30 type  1   force =     0.00000000    0.00000000    0.00000000
     atom   31 type  1   force =     0.00000000    0.00000000    0.00000000
     atom   32 type  1   force =     0.00000000    0.00000000    0.00000000
     atom   33 type  1   force =     0.00000000    0.00000000    0.00000000
     atom   34 type  1   force =     0.00000000    0.00000000    0.00000000
     atom   35 type  1   force =     0.00000000    0.00000000    0.00000000
     atom   36 type  1   force =     0.00000000    0.00000000    0.00000000
     atom   37 type  1   force =     0.00000000    0.00000000    0.00000000
     atom   38 type  1   force =     0.00000000    0.00000000    0.00000000
     atom   39 type  1   force =     0.00000000    0.00000000    0.00000000
     atom   40 type  1   force =     0.00000000    0.00000000    0.00000000
     atom   41 type  1   force =     0.00000000    0.00000000    0.00000000
     atom   42 type  1   force =     0.00000000    0.00000000    0.00000000
     atom   43 type  1   force =     0.00000000    0.00000000    0.00000000
     atom   44 type  1   force =     0.00000000    0.00000000    0.00000000
     atom   45 type  2   force =     0.00000000    0.00000000    0.00000000
     atom   46 type  2   force =     0.00000000    0.00000000    0.00000000
     atom   47 type  2   force =     0.00000000    0.00000000    0.00000000
     atom   48 type  2   force =     0.00000000    0.00000000    0.00000000
     atom   49 type  2   force =     0.00000000    0.00000000    0.00000000
     atom   50 type  2   force =     0.00000000    0.00000000    0.00000000
     atom   51 type  2   force =     0.00000000    0.00000000    0.00000000
     atom   52 type  2   force =     0.00000000    0.00000000    0.00000000
     atom   53 type  2   force =     0.00000000    0.00000000    0.00000000
     atom   54 type  2   force =     0.00000000    0.00000000    0.00000000
     atom   55 type  2   force =     0.00000000    0.00000000    0.00000000
     atom   56 type  2   force =     0.00000000    0.00000000    0.00000000
     atom   57 type  2   force =     0.00000000    0.00000000    0.00000000
     atom   58 type  2   force =     0.00000000    0.00000000    0.00000000
     atom   59 type  2   force =     0.00000000    0.00000000    0.00000000
     atom   60 type  2   force =     0.00000000    0.00000000    0.00000000
     atom   61 type  2   force =     0.00000000    0.00000000    0.00000000
     atom   62 type  2   force =     0.00000000    0.00000000    0.00000000
     atom   63 type  2   force =     0.00000000    0.00000000    0.00000000
     atom   64 type  2   force =     0.00000000    0.00000000    0.00000000
     atom   65 type  2   force =     0.00000000    0.00000000    0.00000000
     atom   66 type  2   force =     0.00000000    0.00000000    0.00000000
     The SCF correction term to forces
     atom    1 type  1   force =    -0.00000061    0.00000369   -0.00001778
     atom    2 type  1   force =    -0.00000177    0.00000863    0.00000333
     atom    3 type  1   force =    -0.00000090    0.00000017    0.00001286
     atom    4 type  1   force =    -0.00000895   -0.00000408    0.00001228
     atom    5 type  1   force =    -0.00000931   -0.00001803    0.00002873
     atom    6 type  1   force =     0.00001849    0.00001971    0.00002239
     atom    7 type  1   force =    -0.00000252    0.00002771   -0.00000327
     atom    8 type  1   force =    -0.00001669    0.00001593   -0.00000490
     atom    9 type  1   force =    -0.00002087   -0.00000911    0.00001570
     atom   10 type  1   force =    -0.00002551    0.00000483   -0.00001727
     atom   11 type  1   force =     0.00000380    0.00001755    0.00000782
     atom   12 type  1   force =     0.00002763    0.00001972   -0.00002057
     atom   13 type  1   force =     0.00000325    0.00000131   -0.00000372
     atom   14 type  1   force =     0.00000247   -0.00001319   -0.00000014
     atom   15 type  1   force =    -0.00000440   -0.00000332    0.00000453
     atom   16 type  1   force =     0.00000034   -0.00000299   -0.00000164
     atom   17 type  1   force =     0.00001409    0.00000744    0.00000171
     atom   18 type  1   force =     0.00000562    0.00001230    0.00000849
     atom   19 type  1   force =    -0.00001483   -0.00001500    0.00002095
     atom   20 type  1   force =    -0.00000836   -0.00001157   -0.00001471
     atom   21 type  1   force =    -0.00000241   -0.00000771   -0.00002825
     atom   22 type  1   force =     0.00000707    0.00003434   -0.00001205
     atom   23 type  1   force =    -0.00000244    0.00000324   -0.00000889
     atom   24 type  1   force =     0.00000267    0.00000755   -0.00000466
     atom   25 type  1   force =     0.00002395   -0.00001832   -0.00001826
     atom   26 type  1   force =    -0.00002188   -0.00002004   -0.00001469
     atom   27 type  1   force =     0.00001774    0.00000110    0.00001180
     atom   28 type  1   force =     0.00000663    0.00000075    0.00001244
     atom   29 type  1   force =     0.00000877    0.00002672    0.00001114
     atom   30 type  1   force =    -0.00001610   -0.00000558    0.00001596
     atom   31 type  1   force =     0.00001373    0.00000911    0.00000563
     atom   32 type  1   force =     0.00001319    0.00000992    0.00001240
     atom   33 type  1   force =     0.00001260   -0.00000945    0.00000645
     atom   34 type  1   force =    -0.00000461   -0.00000397   -0.00000043
     atom   35 type  1   force =     0.00000157   -0.00000507    0.00000139
     atom   36 type  1   force =    -0.00000157   -0.00000825   -0.00000193
     atom   37 type  1   force =    -0.00000811    0.00001820   -0.00000364
     atom   38 type  1   force =    -0.00002603   -0.00000913   -0.00001367
     atom   39 type  1   force =     0.00004675    0.00000278    0.00006683
     atom   40 type  1   force =    -0.00006887    0.00001076    0.00005577
     atom   41 type  1   force =    -0.00000455   -0.00000709    0.00000810
     atom   42 type  1   force =     0.00000389   -0.00001636    0.00000648
     atom   43 type  1   force =     0.00003105    0.00000141   -0.00002006
     atom   44 type  1   force =     0.00002334   -0.00001511    0.00000655
     atom   45 type  2   force =    -0.00002710    0.00009597   -0.00001277
     atom   46 type  2   force =     0.00003089   -0.00002347    0.00011876
     atom   47 type  2   force =     0.00004876    0.00003273    0.00018057
     atom   48 type  2   force =    -0.00006107    0.00022378   -0.00001115
     atom   49 type  2   force =    -0.00017708    0.00001650   -0.00002693
     atom   50 type  2   force =     0.00006366    0.00017160   -0.00002226
     atom   51 type  2   force =     0.00006001   -0.00011382   -0.00015857
     atom   52 type  2   force =    -0.00006039   -0.00005061    0.00006390
     atom   53 type  2   force =     0.00013127    0.00007747    0.00005097
     atom   54 type  2   force =    -0.00011148   -0.00013618    0.00001990
     atom   55 type  2   force =     0.00001965    0.00008971   -0.00016008
     atom   56 type  2   force =     0.00002975    0.00001274   -0.00005815
     atom   57 type  2   force =     0.00001399   -0.00014607   -0.00008393
     atom   58 type  2   force =     0.00014594    0.00005907    0.00008369
     atom   59 type  2   force =    -0.00008968    0.00003829    0.00011602
     atom   60 type  2   force =     0.00012597    0.00010326    0.00008854
     atom   61 type  2   force =    -0.00010331   -0.00004010   -0.00001758
     atom   62 type  2   force =    -0.00005906   -0.00014845   -0.00000278
     atom   63 type  2   force =    -0.00011399    0.00003625   -0.00007084
     atom   64 type  2   force =    -0.00004190    0.00003042    0.00031162
     atom   65 type  2   force =     0.00008952   -0.00007882    0.00004614
     atom   66 type  2   force =     0.00028622   -0.00003363   -0.00010047

     Total force =     0.568727     Total SCF correction =     0.000867


     Computing stress (Cartesian axis) and pressure


     negative rho (up, down):  5.032E-01 0.000E+00
          total   stress  (Ry/bohr**3)                   (kbar)     P=       -2.88
  -0.00001963   0.00000039  -0.00000040           -2.89        0.06       -0.06
   0.00000039  -0.00001983   0.00000006            0.06       -2.92        0.01
  -0.00000040   0.00000006  -0.00001927           -0.06        0.01       -2.84


     init_run     :      8.11s CPU      8.58s WALL (       1 calls)
     electrons    :     82.66s CPU     88.08s WALL (       1 calls)
     forces       :      5.59s CPU      5.91s WALL (       1 calls)
     stress       :     16.83s CPU     17.30s WALL (       1 calls)

     Called by init_run:
     wfcinit      :      3.10s CPU      3.29s WALL (       1 calls)
     potinit      :      1.31s CPU      1.39s WALL (       1 calls)
     hinit0       :      1.01s CPU      1.07s WALL (       1 calls)

     Called by electrons:
     c_bands      :     55.09s CPU     57.87s WALL (      10 calls)
     sum_band     :     15.83s CPU     17.05s WALL (      10 calls)
     v_of_rho     :      6.85s CPU      7.42s WALL (      11 calls)
     newd         :      3.48s CPU      4.40s WALL (      11 calls)
     PAW_pot      :      0.99s CPU      1.00s WALL (      11 calls)
     mix_rho      :      1.21s CPU      1.30s WALL (      10 calls)

     Called by c_bands:
     init_us_2    :      0.83s CPU      0.85s WALL (      21 calls)
     init_us_2:cp :      0.83s CPU      0.85s WALL (      21 calls)
     regterg      :     54.13s CPU     56.90s WALL (      10 calls)

     Called by *egterg:
     rdiaghg      :      0.21s CPU      0.21s WALL (      32 calls)
     h_psi        :     48.74s CPU     51.10s WALL (      33 calls)
     s_psi        :      1.39s CPU      1.39s WALL (      33 calls)
     g_psi        :      0.16s CPU      0.16s WALL (      22 calls)

     Called by h_psi:
     h_psi:calbec :      1.19s CPU      1.20s WALL (      33 calls)
     vloc_psi     :     45.72s CPU     48.05s WALL (      33 calls)
     add_vuspsi   :      1.37s CPU      1.37s WALL (      33 calls)

     General routines
     calbec       :      1.77s CPU      1.79s WALL (      48 calls)
     fft          :      4.00s CPU      4.55s WALL (     119 calls)
     ffts         :      0.27s CPU      0.31s WALL (      10 calls)
     fftw         :     38.81s CPU     41.40s WALL (    2906 calls)

     Parallel routines

     PWSCF        :   1m53.32s CPU   2m 0.09s WALL


   This run was terminated on:  11:47:31  27Mar2024            

=------------------------------------------------------------------------------=
   JOB DONE.
=------------------------------------------------------------------------------=
