
     Program PWSCF v.7.2 starts on 28Mar2024 at  0:39:19 

     This program is part of the open-source Quantum ESPRESSO suite
     for quantum simulation of materials; please cite
         "P. Giannozzi et al., J. Phys.:Condens. Matter 21 395502 (2009);
         "P. Giannozzi et al., J. Phys.:Condens. Matter 29 465901 (2017);
         "P. Giannozzi et al., J. Chem. Phys. 152 154105 (2020);
          URL http://www.quantum-espresso.org", 
     in publications or presentations arising from this work. More details at
     http://www.quantum-espresso.org/quote

     Parallel version (MPI), running on    32 processors

     MPI processes distributed on     1 nodes
     175050 MiB available memory on the printing compute node when the environment starts

     Reading input from pw-wt-466.in
Warning: card &CELL ignored
Warning: card / ignored

     Current dimensions of program PWSCF are:
     Max number of different atomic species (ntypx) = 10
     Max number of k-points (npk) =  40000
     Max angular momentum in pseudopotentials (lmaxx) =  4
     file O.pbe-n-kjpaw_psl.0.1.UPF: wavefunction(s)  2P renormalized

     IMPORTANT: XC functional enforced from input :
     Exchange-correlation= PBE
                           (   1   4   3   4   0   0   0)
     Any further DFT definition will be discarded
     Please, verify this is what you really want


     gamma-point specific algorithms are used

     R & G space division:  proc/nbgrp/npool/nimage =      32
     Subspace diagonalization in iterative solution of the eigenvalue problem:
     a serial algorithm will be used


     Parallelization info
     --------------------
     sticks:   dense  smooth     PW     G-vecs:    dense   smooth      PW
     Min        1707    1707    426               301015   301015   37634
     Max        1710    1710    428               301034   301034   37648
     Sum       54693   54693  13673              9632757  9632757 1204469

     Using Slab Decomposition



     bravais-lattice index     =            0
     lattice parameter (alat)  =      75.7119  a.u.
     unit-cell volume          =  434002.3113 (a.u.)^3
     number of atoms/cell      =           66
     number of atomic types    =            2
     number of electrons       =       176.00
     number of Kohn-Sham states=           88
     kinetic-energy cutoff     =      30.0000  Ry
     charge density cutoff     =     120.0000  Ry
     scf convergence threshold =      1.0E-06
     mixing beta               =       0.5000
     number of iterations used =            8  plain     mixing
     Exchange-correlation= PBE
                           (   1   4   3   4   0   0   0)

     celldm(1)=  75.711877  celldm(2)=   0.000000  celldm(3)=   0.000000
     celldm(4)=   0.000000  celldm(5)=   0.000000  celldm(6)=   0.000000

     crystal axes: (cart. coord. in units of alat)
               a(1) = (   1.000000   0.000000   0.000000 )  
               a(2) = (   0.000000   1.000000   0.000000 )  
               a(3) = (   0.000000   0.000000   1.000000 )  

     reciprocal axes: (cart. coord. in units 2 pi/alat)
               b(1) = (  1.000000  0.000000  0.000000 )  
               b(2) = (  0.000000  1.000000  0.000000 )  
               b(3) = (  0.000000  0.000000  1.000000 )  


     PseudoPot. # 1 for H  read from file:
     /share/pfaendtnergroup/rverma7/QE_PP/H.pbe-rrkjus_psl.1.0.0.UPF
     MD5 check sum: f52b6d4d1c606e5624b1dc7b2218f220
     Pseudo is Ultrasoft, Zval =  1.0
     Generated using "atomic" code by A. Dal Corso  v.5.1
     Using radial grid of  929 points,  2 beta functions with: 
                l(1) =   0
                l(2) =   0
     Q(r) pseudized with 0 coefficients 


     PseudoPot. # 2 for O  read from file:
     /share/pfaendtnergroup/rverma7/QE_PP/O.pbe-n-kjpaw_psl.0.1.UPF
     MD5 check sum: 0234752ac141de4415c5fc33072bef88
     Pseudo is Projector augmented-wave + core cor, Zval =  6.0
     Generated using "atomic" code by A. Dal Corso  v.5.0.99 svn rev. 10869
     Shape of augmentation charge: BESSEL
     Using radial grid of 1095 points,  4 beta functions with: 
                l(1) =   0
                l(2) =   0
                l(3) =   1
                l(4) =   1
     Q(r) pseudized with 0 coefficients 


     atomic species   valence    mass     pseudopotential
        H              1.00     1.00800     H ( 1.00)
        O              6.00    15.99900     O ( 1.00)

     No symmetry found



   Cartesian axes

     site n.     atom                  positions (alat units)
         1           H   tau(   1) = (   0.3417946   0.2109322   0.4702109  )
         2           H   tau(   2) = (   0.3179084   0.1928117   0.4420816  )
         3           H   tau(   3) = (   0.2898789   0.3044303   0.3756645  )
         4           H   tau(   4) = (   0.2967927   0.2834394   0.4069387  )
         5           H   tau(   5) = (   0.2655685   0.1659803   0.2783976  )
         6           H   tau(   6) = (   0.2649445   0.1845501   0.3156371  )
         7           H   tau(   7) = (   0.3538250   0.2938974   0.4226133  )
         8           H   tau(   8) = (   0.3444153   0.2593286   0.4435293  )
         9           H   tau(   9) = (   0.3577437   0.3238737   0.3471858  )
        10           H   tau(  10) = (   0.3859728   0.3500312   0.3370523  )
        11           H   tau(  11) = (   0.2459753   0.2914514   0.3618370  )
        12           H   tau(  12) = (   0.2075128   0.2875827   0.3632347  )
        13           H   tau(  13) = (   0.2590790   0.1246225   0.4402097  )
        14           H   tau(  14) = (   0.2671159   0.1588169   0.4330962  )
        15           H   tau(  15) = (   0.2861849   0.2914264   0.4839636  )
        16           H   tau(  16) = (   0.2501685   0.2711344   0.4725072  )
        17           H   tau(  17) = (   0.2653189   0.2046425   0.4783227  )
        18           H   tau(  18) = (   0.2488955   0.2186946   0.4425059  )
        19           H   tau(  19) = (   0.3012854   0.3213778   0.3197304  )
        20           H   tau(  20) = (   0.3247972   0.2900287   0.3351304  )
        21           H   tau(  21) = (   0.2166230   0.1952577   0.3206040  )
        22           H   tau(  22) = (   0.2332460   0.2084862   0.3514289  )
        23           H   tau(  23) = (   0.2484213   0.3056284   0.3076001  )
        24           H   tau(  24) = (   0.2618495   0.3061026   0.2710346  )
        25           H   tau(  25) = (   0.3618370   0.1687757   0.4185199  )
        26           H   tau(  26) = (   0.3819543   0.1369275   0.4271309  )
        27           H   tau(  27) = (   0.2450768   0.2792961   0.4193685  )
        28           H   tau(  28) = (   0.2092100   0.2618745   0.4219393  )
        29           H   tau(  29) = (   0.3420941   0.3292649   0.4552602  )
        30           H   tau(  30) = (   0.3191564   0.3498565   0.4800449  )
        31           H   tau(  31) = (   0.2940971   0.1855984   0.3491576  )
        32           H   tau(  32) = (   0.2980906   0.2254337   0.3479596  )
        33           H   tau(  33) = (   0.1984026   0.2360414   0.3640334  )
        34           H   tau(  34) = (   0.1621864   0.2476226   0.3786098  )
        35           H   tau(  35) = (   0.3932110   0.3479596   0.4277549  )
        36           H   tau(  36) = (   0.3752902   0.3325346   0.3958817  )
        37           H   tau(  37) = (   0.3349557   0.2575565   0.3831524  )
        38           H   tau(  38) = (   0.3508299   0.2352427   0.3499314  )
        39           H   tau(  39) = (   0.2988643   0.1457631   0.3869213  )
        40           H   tau(  40) = (   0.3363285   0.1536254   0.3803819  )
        41           H   tau(  41) = (   0.3423187   0.2505928   0.5073006  )
        42           H   tau(  42) = (   0.3110945   0.2541370   0.4820666  )
        43           H   tau(  43) = (   0.3821290   0.1854986   0.3746162  )
        44           H   tau(  44) = (   0.3813803   0.1741420   0.3380507  )
        45           O   tau(  45) = (   0.3415699   0.1931112   0.4515662  )
        46           O   tau(  46) = (   0.2775490   0.2885561   0.3900911  )
        47           O   tau(  47) = (   0.2502933   0.1727942   0.2970922  )
        48           O   tau(  48) = (   0.3415200   0.2711094   0.4198428  )
        49           O   tau(  49) = (   0.3779858   0.3366280   0.3574442  )
        50           O   tau(  50) = (   0.2246100   0.3001872   0.3491576  )
        51           O   tau(  51) = (   0.2747286   0.1356546   0.4241108  )
        52           O   tau(  52) = (   0.2746537   0.2695869   0.4844128  )
        53           O   tau(  53) = (   0.2605266   0.1995507   0.4544116  )
        54           O   tau(  54) = (   0.3215525   0.3152627   0.3351554  )
        55           O   tau(  55) = (   0.2101835   0.2060402   0.3419443  )
        56           O   tau(  56) = (   0.2700861   0.3054536   0.2932734  )
        57           O   tau(  57) = (   0.3737177   0.1477100   0.4069637  )
        58           O   tau(  58) = (   0.2288282   0.2691127   0.4343941  )
        59           O   tau(  59) = (   0.3258455   0.3262449   0.4735056  )
        60           O   tau(  60) = (   0.2807188   0.2067890   0.3434669  )
        61           O   tau(  61) = (   0.1863222   0.2544865   0.3783602  )
        62           O   tau(  62) = (   0.3774616   0.3295894   0.4202171  )
        63           O   tau(  63) = (   0.3366030   0.2536628   0.3568202  )
        64           O   tau(  64) = (   0.3143642   0.1561463   0.3696493  )
        65           O   tau(  65) = (   0.3346811   0.2448272   0.4840384  )
        66           O   tau(  66) = (   0.3766879   0.1944590   0.3526769  )

     number of k points=     1
                       cart. coord. in units 2pi/alat
        k(    1) = (   0.0000000   0.0000000   0.0000000), wk =   2.0000000

     Dense  grid:  4816379 G-vectors     FFT dimensions: ( 270, 270, 270)

     Estimated max dynamical RAM per process >     612.29 MB

     Estimated total dynamical RAM >      19.13 GB

     Check: negative core charge=   -0.000006

     Initial potential from superposition of free atoms

     starting charge     175.9995, renormalised to     176.0000

     negative rho (up, down):  3.724E-01 0.000E+00
     Starting wfcs are  132 randomized atomic wfcs
     Checking if some PAW data can be deallocated... 

     total cpu time spent up to now is        8.1 secs

     Self-consistent Calculation

     iteration #  1     ecut=    30.00 Ry     beta= 0.50
     Davidson diagonalization with overlap
     ethr =  1.00E-02,  avg # of iterations =  2.0

     negative rho (up, down):  4.412E-01 0.000E+00

     total cpu time spent up to now is       18.2 secs

     total energy              =    -965.72214209 Ry
     estimated scf accuracy    <       6.90273298 Ry

     iteration #  2     ecut=    30.00 Ry     beta= 0.50
     Davidson diagonalization with overlap
     ethr =  3.92E-03,  avg # of iterations =  2.0

     negative rho (up, down):  4.622E-01 0.000E+00

     total cpu time spent up to now is       27.0 secs

     total energy              =    -967.66889642 Ry
     estimated scf accuracy    <       1.00333787 Ry

     iteration #  3     ecut=    30.00 Ry     beta= 0.50
     Davidson diagonalization with overlap
     ethr =  5.70E-04,  avg # of iterations =  2.0

     negative rho (up, down):  5.092E-01 0.000E+00

     total cpu time spent up to now is       34.3 secs

     total energy              =    -967.71946497 Ry
     estimated scf accuracy    <       0.13182801 Ry

     iteration #  4     ecut=    30.00 Ry     beta= 0.50
     Davidson diagonalization with overlap
     ethr =  7.49E-05,  avg # of iterations =  3.0

     negative rho (up, down):  5.088E-01 0.000E+00

     total cpu time spent up to now is       42.9 secs

     total energy              =    -967.74431392 Ry
     estimated scf accuracy    <       0.04398439 Ry

     iteration #  5     ecut=    30.00 Ry     beta= 0.50
     Davidson diagonalization with overlap
     ethr =  2.50E-05,  avg # of iterations =  2.0

     negative rho (up, down):  5.078E-01 0.000E+00

     total cpu time spent up to now is       49.7 secs

     total energy              =    -967.74514414 Ry
     estimated scf accuracy    <       0.00820135 Ry

     iteration #  6     ecut=    30.00 Ry     beta= 0.50
     Davidson diagonalization with overlap
     ethr =  4.66E-06,  avg # of iterations =  2.0

     negative rho (up, down):  5.069E-01 0.000E+00

     total cpu time spent up to now is       56.6 secs

     total energy              =    -967.74499540 Ry
     estimated scf accuracy    <       0.00212646 Ry

     iteration #  7     ecut=    30.00 Ry     beta= 0.50
     Davidson diagonalization with overlap
     ethr =  1.21E-06,  avg # of iterations =  2.0

     negative rho (up, down):  5.065E-01 0.000E+00

     total cpu time spent up to now is       64.5 secs

     total energy              =    -967.74535442 Ry
     estimated scf accuracy    <       0.00008009 Ry

     iteration #  8     ecut=    30.00 Ry     beta= 0.50
     Davidson diagonalization with overlap
     ethr =  4.55E-08,  avg # of iterations =  3.0

     negative rho (up, down):  5.065E-01 0.000E+00

     total cpu time spent up to now is       73.5 secs

     total energy              =    -967.74539450 Ry
     estimated scf accuracy    <       0.00002503 Ry

     iteration #  9     ecut=    30.00 Ry     beta= 0.50
     Davidson diagonalization with overlap
     ethr =  1.42E-08,  avg # of iterations =  1.0

     negative rho (up, down):  5.066E-01 0.000E+00

     total cpu time spent up to now is       79.8 secs

     total energy              =    -967.74539158 Ry
     estimated scf accuracy    <       0.00001018 Ry

     iteration # 10     ecut=    30.00 Ry     beta= 0.50
     Davidson diagonalization with overlap
     ethr =  5.78E-09,  avg # of iterations =  2.0

     negative rho (up, down):  5.067E-01 0.000E+00

     total cpu time spent up to now is       87.6 secs

     End of self-consistent calculation

          k = 0.0000 0.0000 0.0000 (602235 PWs)   bands (ev):

   -26.4081 -25.7531 -25.6985 -25.5375 -25.4701 -25.3518 -25.3076 -25.1276
   -25.1087 -25.0473 -25.0315 -24.9942 -24.9704 -24.7986 -24.7244 -24.5398
   -24.3959 -24.3119 -24.2334 -24.1193 -23.6137 -23.6009 -14.2485 -13.8216
   -13.7146 -13.6515 -13.4498 -13.4158 -13.2386 -13.1466 -13.1183 -12.9939
   -12.9016 -12.7659 -12.6492 -12.5982 -12.4752 -12.4466 -12.0934 -12.0069
   -11.8972 -11.7834 -11.5882 -11.2888 -11.0453 -10.8935 -10.6321 -10.5061
   -10.4018 -10.2127 -10.0734  -9.8441  -9.7975  -9.6634  -9.6495  -9.4034
    -9.3313  -9.1150  -9.0527  -8.8565  -8.7348  -8.5094  -8.3969  -8.3194
    -8.0302  -7.9928  -7.8705  -7.8197  -7.7919  -7.7214  -7.7102  -7.5764
    -7.4855  -7.4244  -7.3292  -7.2668  -7.1745  -7.1587  -7.1065  -7.0807
    -6.9491  -6.8918  -6.8058  -6.7921  -6.7648  -6.5142  -6.1017  -6.0564

     highest occupied level (ev):    -6.0564

!    total energy              =    -967.74539294 Ry
     estimated scf accuracy    <       0.00000039 Ry

     The total energy is the sum of the following terms:
     one-electron contribution =   -5916.87547970 Ry
     hartree contribution      =    2993.47872294 Ry
     xc contribution           =    -193.77109658 Ry
     ewald contribution        =    2358.72904072 Ry
     one-center paw contrib.   =    -209.30658031 Ry

     convergence has been achieved in  10 iterations

     negative rho (up, down):  5.067E-01 0.000E+00

     Forces acting on atoms (cartesian axes, Ry/au):

     atom    1 type  1   force =    -0.01336171   -0.02748408   -0.04295662
     atom    2 type  1   force =     0.05365034    0.00611567    0.03499695
     atom    3 type  1   force =    -0.00251499    0.00731521   -0.01092358
     atom    4 type  1   force =    -0.04425073   -0.00146225   -0.03790157
     atom    5 type  1   force =    -0.02705498    0.01858321    0.04065115
     atom    6 type  1   force =    -0.02466965   -0.01677752   -0.07297128
     atom    7 type  1   force =    -0.01781761   -0.06428189   -0.00910497
     atom    8 type  1   force =    -0.00966224    0.04019425   -0.08004776
     atom    9 type  1   force =     0.01951715    0.03871849    0.01264467
     atom   10 type  1   force =    -0.01935830   -0.03650885    0.07125774
     atom   11 type  1   force =    -0.07459473    0.03390319   -0.04839480
     atom   12 type  1   force =     0.00536004    0.01859295   -0.04035511
     atom   13 type  1   force =     0.02730321   -0.02579457   -0.03401085
     atom   14 type  1   force =     0.03832447   -0.02749815   -0.03641544
     atom   15 type  1   force =    -0.02378113    0.01033790   -0.01002618
     atom   16 type  1   force =     0.10618629    0.00320328    0.02467165
     atom   17 type  1   force =    -0.01699049    0.01262379   -0.04128748
     atom   18 type  1   force =     0.02337300   -0.01937797    0.04389597
     atom   19 type  1   force =     0.06313499   -0.03595233    0.02532625
     atom   20 type  1   force =    -0.01236684    0.02079494   -0.00157232
     atom   21 type  1   force =    -0.01385559    0.00307751   -0.01249647
     atom   22 type  1   force =    -0.00671112   -0.00594468   -0.00688323
     atom   23 type  1   force =     0.04896797   -0.00902628   -0.02183859
     atom   24 type  1   force =    -0.01199936    0.00481235   -0.05433735
     atom   25 type  1   force =     0.03915318   -0.06648226   -0.01480204
     atom   26 type  1   force =     0.00555049   -0.01355552    0.00480639
     atom   27 type  1   force =     0.00582501    0.01254397   -0.03073353
     atom   28 type  1   force =    -0.01600777    0.00151088   -0.02870061
     atom   29 type  1   force =     0.00435159    0.00649104   -0.00780791
     atom   30 type  1   force =     0.01862308   -0.05788966   -0.01890053
     atom   31 type  1   force =    -0.00388545    0.03004826    0.02112137
     atom   32 type  1   force =    -0.03619919   -0.03194315   -0.01553403
     atom   33 type  1   force =    -0.04699087    0.03057685    0.00921816
     atom   34 type  1   force =     0.04573426    0.01218352   -0.00474601
     atom   35 type  1   force =    -0.03827082   -0.04985696   -0.01878099
     atom   36 type  1   force =     0.01276563    0.02030190   -0.04229819
     atom   37 type  1   force =     0.03831387   -0.02823937   -0.07683058
     atom   38 type  1   force =     0.02524376   -0.02210944    0.01935579
     atom   39 type  1   force =     0.02068906    0.01213796   -0.03229383
     atom   40 type  1   force =     0.00336330   -0.00654499   -0.00742420
     atom   41 type  1   force =    -0.01223642   -0.00417785   -0.04611129
     atom   42 type  1   force =    -0.00942188   -0.01583610    0.00502915
     atom   43 type  1   force =     0.00870472   -0.00623285    0.01887331
     atom   44 type  1   force =    -0.01565132    0.05638676    0.03162741
     atom   45 type  2   force =    -0.04050708   -0.02164922   -0.03122407
     atom   46 type  2   force =     0.07583384   -0.00244479    0.06209585
     atom   47 type  2   force =     0.04313063    0.00010098    0.00763065
     atom   48 type  2   force =     0.02232699    0.02471826    0.09430629
     atom   49 type  2   force =     0.00437669    0.01434178   -0.10068438
     atom   50 type  2   force =     0.06575373   -0.03846093    0.05823550
     atom   51 type  2   force =    -0.06586710    0.06205608    0.07466986
     atom   52 type  2   force =    -0.08048881    0.00762173   -0.02209483
     atom   53 type  2   force =    -0.00593107    0.00403718   -0.01031762
     atom   54 type  2   force =    -0.06008399   -0.00863070   -0.02279947
     atom   55 type  2   force =     0.03632198   -0.00713998    0.02179285
     atom   56 type  2   force =    -0.05120362    0.00487439    0.08924891
     atom   57 type  2   force =    -0.04551066    0.09824815    0.03112673
     atom   58 type  2   force =     0.00566406   -0.01914520    0.06061410
     atom   59 type  2   force =    -0.02723060    0.05594999    0.02991358
     atom   60 type  2   force =     0.05545927    0.01407438    0.02694870
     atom   61 type  2   force =    -0.02019687   -0.04422854    0.00771634
     atom   62 type  2   force =     0.02454016    0.03523402    0.08281392
     atom   63 type  2   force =    -0.05674180    0.03041858    0.04053193
     atom   64 type  2   force =    -0.03555214   -0.03048144    0.03494182
     atom   65 type  2   force =     0.02361658    0.03826775    0.06472730
     atom   66 type  2   force =     0.01580755   -0.04523965   -0.05718256
     The non-local contrib.  to forces
     atom    1 type  1   force =    -0.00395115   -0.05524417   -0.06099659
     atom    2 type  1   force =     0.08657982    0.00335318    0.03657919
     atom    3 type  1   force =    -0.05195678   -0.06714913    0.06245118
     atom    4 type  1   force =    -0.06187425    0.01727696   -0.05557540
     atom    5 type  1   force =    -0.05748647    0.02813739    0.07457124
     atom    6 type  1   force =    -0.03994067   -0.03449002   -0.05471413
     atom    7 type  1   force =    -0.04047521   -0.07424002   -0.00746408
     atom    8 type  1   force =    -0.00826102    0.03612339   -0.06866354
     atom    9 type  1   force =     0.06332840    0.04077982    0.03082723
     atom   10 type  1   force =    -0.02915152   -0.04727648    0.07128846
     atom   11 type  1   force =    -0.06611765    0.02633340   -0.03842803
     atom   12 type  1   force =     0.06279723    0.04419238   -0.04979664
     atom   13 type  1   force =     0.06191621    0.04404220   -0.06394573
     atom   14 type  1   force =     0.02500356   -0.07755223   -0.02992960
     atom   15 type  1   force =    -0.05258619   -0.09261149    0.00078360
     atom   16 type  1   force =     0.06402843   -0.00139897    0.02935510
     atom   17 type  1   force =    -0.02157462   -0.01753408   -0.09906758
     atom   18 type  1   force =     0.04408074   -0.07058846    0.04868960
     atom   19 type  1   force =     0.06429253   -0.02117227    0.04875094
     atom   20 type  1   force =    -0.01442650    0.09264206   -0.00187147
     atom   21 type  1   force =    -0.02623872    0.04676991    0.09034202
     atom   22 type  1   force =    -0.09258952   -0.01017283   -0.03842028
     atom   23 type  1   force =     0.07201289    0.00006696   -0.05092103
     atom   24 type  1   force =     0.04008498   -0.00241976    0.11474508
     atom   25 type  1   force =     0.03429663   -0.06058866   -0.03265789
     atom   26 type  1   force =    -0.03845151    0.05080346   -0.09163100
     atom   27 type  1   force =    -0.07603737   -0.04736762    0.06628269
     atom   28 type  1   force =     0.09133945    0.03410461    0.05541978
     atom   29 type  1   force =    -0.07138763   -0.01030914    0.07945374
     atom   30 type  1   force =     0.02671854   -0.08704951   -0.02657874
     atom   31 type  1   force =    -0.04501057    0.07365775   -0.01911549
     atom   32 type  1   force =    -0.05730889   -0.06425809   -0.01541358
     atom   33 type  1   force =    -0.03758334    0.05352797    0.04265306
     atom   34 type  1   force =     0.09587391    0.02550289   -0.00212204
     atom   35 type  1   force =    -0.05944161   -0.06837660   -0.02999730
     atom   36 type  1   force =     0.00996968   -0.01042468    0.10202721
     atom   37 type  1   force =     0.00680551   -0.01258005   -0.07204142
     atom   38 type  1   force =    -0.06554888    0.08538143    0.03534577
     atom   39 type  1   force =     0.05946465    0.03897472   -0.06331501
     atom   40 type  1   force =    -0.09685561    0.01150718   -0.04507549
     atom   41 type  1   force =    -0.03182905   -0.02166867   -0.09127975
     atom   42 type  1   force =     0.08337270   -0.03188866    0.00944219
     atom   43 type  1   force =    -0.02526049    0.03982279   -0.10210960
     atom   44 type  1   force =    -0.01681847    0.07385359    0.05582256
     atom   45 type  2   force =    -1.54763652    0.94997012    0.29488757
     atom   46 type  2   force =     1.82809734    0.78439117    0.12902111
     atom   47 type  2   force =     1.97595506    0.23053687   -0.29718457
     atom   48 type  2   force =     0.70908672    0.69588854    1.40465157
     atom   49 type  2   force =    -0.56836526    0.23405217   -1.78223529
     atom   50 type  2   force =     0.34208585   -1.33269401    1.52655495
     atom   51 type  2   force =    -1.54851601    0.67474922    1.58790769
     atom   52 type  2   force =    -0.41461049    1.60399091   -0.77857020
     atom   53 type  2   force =    -0.44434651    1.68280088    0.94309889
     atom   54 type  2   force =    -0.92531592   -1.13901680   -0.86932558
     atom   55 type  2   force =     1.87390680   -0.29681305   -0.67925784
     atom   56 type  2   force =    -1.97491601    0.25913645   -0.78746221
     atom   57 type  2   force =    -0.12325330    0.53136184    2.11548233
     atom   58 type  2   force =    -0.17991356    0.08144198   -1.73487557
     atom   59 type  2   force =     0.60969486    1.95080875   -0.82982267
     atom   60 type  2   force =     1.70738123   -0.19789592    0.45277141
     atom   61 type  2   force =    -0.99197763   -1.45344217   -0.66696745
     atom   62 type  2   force =     0.74943099    1.42172929   -0.79149263
     atom   63 type  2   force =     0.79150752   -1.10264603    0.92590518
     atom   64 type  2   force =     0.40894518   -0.68447387    1.82277282
     atom   65 type  2   force =    -0.74239030    0.84535143    1.43907178
     atom   66 type  2   force =     0.69264197   -2.06095587    0.54739351
     The ionic contribution  to forces
     atom    1 type  1   force =     1.61112369   -0.08224604    3.62805849
     atom    2 type  1   force =    -2.19783550   -1.37891803    0.00220140
     atom    3 type  1   force =     0.92432822    4.00217623   -1.84191455
     atom    4 type  1   force =     1.30998884    0.66331555    2.19371454
     atom    5 type  1   force =     1.70062320   -2.12276695   -4.48428242
     atom    6 type  1   force =     0.79844309   -0.62597713   -0.71713188
     atom    7 type  1   force =     2.60666345    2.73234020    0.90950979
     atom    8 type  1   force =     2.04046283   -0.83067513    2.84341649
     atom    9 type  1   force =     0.01895041    0.34935873   -2.08743769
     atom   10 type  1   force =     2.53036098    3.20405939   -3.53383967
     atom   11 type  1   force =     0.49340142    0.52296186    0.11821397
     atom   12 type  1   force =    -3.80980928    0.50371140    0.70583480
     atom   13 type  1   force =    -2.93565673   -3.66997439    2.94716145
     atom   14 type  1   force =    -1.82099956    0.34299110    1.63598911
     atom   15 type  1   force =     0.52658537    4.05082654    2.20250430
     atom   16 type  1   force =    -3.55060983    0.93178672    1.53375058
     atom   17 type  1   force =    -0.49417253   -0.64429462    5.23737486
     atom   18 type  1   force =    -2.86889112    1.04822514   -0.33370236
     atom   19 type  1   force =    -1.57463874    2.80135736   -2.99213727
     atom   20 type  1   force =     1.10277114   -1.72783681   -2.22645144
     atom   21 type  1   force =    -1.52156137   -2.14569365   -4.02152456
     atom   22 type  1   force =     0.96391756   -0.57662475    0.79248381
     atom   23 type  1   force =    -3.28307268    1.26983045   -0.63667207
     atom   24 type  1   force =    -1.67844961    0.89461661   -5.61169558
     atom   25 type  1   force =     0.73609962    0.44308406    1.59147551
     atom   26 type  1   force =     2.82938951   -3.42974165    3.54850700
     atom   27 type  1   force =     0.32540578    2.40231893   -0.75236381
     atom   28 type  1   force =    -4.80554593   -0.61203832   -0.17844353
     atom   29 type  1   force =     2.55269107    2.37267187   -0.70650671
     atom   30 type  1   force =    -0.86978504    4.89052002    2.31952088
     atom   31 type  1   force =     1.14524239   -3.23436393   -0.85445339
     atom   32 type  1   force =     1.57876556    1.46926729   -1.02369683
     atom   33 type  1   force =    -1.23279813   -1.63962343   -1.37858502
     atom   34 type  1   force =    -5.68982074   -0.81651315    0.12725144
     atom   35 type  1   force =     3.70796076    3.91004600    1.74198644
     atom   36 type  1   force =     1.28149568    1.97762461   -2.18142368
     atom   37 type  1   force =     0.98956404    0.02788490    1.44213756
     atom   38 type  1   force =     3.44872083   -2.33017384   -2.53910769
     atom   39 type  1   force =    -1.87301082   -3.44349097    1.27255716
     atom   40 type  1   force =     3.17839920   -2.41969554    0.51849780
     atom   41 type  1   force =     2.18943019    0.68483859    5.52264645
     atom   42 type  1   force =    -1.77750162    0.75426927    2.05862486
     atom   43 type  1   force =     3.13162204   -1.63437067    2.24893346
     atom   44 type  1   force =     2.36178527   -3.51542173   -3.45021169
     atom   45 type  2   force =     9.52637045   -9.69115642    8.07934647
     atom   46 type  2   force =    -6.51590915    6.86277348    0.71132368
     atom   47 type  2   force =    -7.02714738   -9.32634752  -12.37894334
     atom   48 type  2   force =     7.32786474    1.03894179    1.93992120
     atom   49 type  2   force =    11.78847590    9.80665542   -3.59342536
     atom   50 type  2   force =   -10.81360071   12.08034376   -8.41340254
     atom   51 type  2   force =    -2.44485704  -15.08535325    1.83370364
     atom   52 type  2   force =    -6.07254455    1.66968825   15.43665347
     atom   53 type  2   force =    -7.23267567   -9.44096895    7.74160915
     atom   54 type  2   force =     3.89148151   12.34751955   -8.44080361
     atom   55 type  2   force =   -15.32232930   -5.67311836   -4.38023950
     atom   56 type  2   force =    -0.02321855    5.63152276  -12.38237418
     atom   57 type  2   force =    11.06540910  -12.39284369   -0.81811989
     atom   58 type  2   force =   -12.03199668    3.91114984   10.50111095
     atom   59 type  2   force =     0.56140622    8.74007031   11.90462356
     atom   60 type  2   force =    -3.84071356   -3.04545056   -7.97606472
     atom   61 type  2   force =   -14.61157696    2.98382989    1.66471622
     atom   62 type  2   force =    10.04298462    7.77632103    6.26935899
     atom   63 type  2   force =     6.79112822    1.23234661   -9.48245901
     atom   64 type  2   force =     0.72488963  -11.98045894   -7.85605157
     atom   65 type  2   force =     8.48295274   -1.67143012   13.07689659
     atom   66 type  2   force =    11.63357351   -1.14367697   -9.02815050
     The local contribution  to forces
     atom    1 type  1   force =    -1.62055084    0.10993735   -3.60999802
     atom    2 type  1   force =     2.16488528    1.38161101   -0.00377084
     atom    3 type  1   force =    -0.87487236   -3.92774976    1.76854140
     atom    4 type  1   force =    -1.29233990   -0.68211882   -2.17600034
     atom    5 type  1   force =    -1.67018183    2.11314289    4.45035966
     atom    6 type  1   force =    -0.78317414    0.64362107    0.69888756
     atom    7 type  1   force =    -2.58402217   -2.72244967   -0.91113522
     atom    8 type  1   force =    -2.04187452    0.83468428   -2.85479041
     atom    9 type  1   force =    -0.06278208   -0.35149159    2.06926693
     atom   10 type  1   force =    -2.52058299   -3.19335161    3.53381516
     atom   11 type  1   force =    -0.50190839   -0.51545950   -0.12816125
     atom   12 type  1   force =     3.75234927   -0.52938001   -0.69636374
     atom   13 type  1   force =     2.90102392    3.60008215   -2.91720214
     atom   14 type  1   force =     1.83430552   -0.29301324   -1.64245623
     atom   15 type  1   force =    -0.49779274   -3.94792831   -2.21329423
     atom   16 type  1   force =     3.59274235   -0.92723731   -1.53841427
     atom   17 type  1   force =     0.49874784    0.67438959   -5.17954455
     atom   18 type  1   force =     2.84815372   -0.99705983    0.32891443
     atom   19 type  1   force =     1.57346672   -2.81620277    2.96872943
     atom   20 type  1   force =    -1.10072864    1.65592377    2.22676429
     atom   21 type  1   force =     1.53394524    2.10192567    3.91867501
     atom   22 type  1   force =    -0.87803392    0.58078796   -0.76092262
     atom   23 type  1   force =     3.25999243   -1.27898415    0.66577049
     atom   24 type  1   force =     1.62633717   -0.88744530    5.44261519
     atom   25 type  1   force =    -0.73125998   -0.44905193   -1.57360979
     atom   26 type  1   force =    -2.78541229    3.36532708   -3.45205496
     atom   27 type  1   force =    -0.24356290   -2.34246125    0.65535323
     atom   28 type  1   force =     4.69816284    0.57937904    0.09431943
     atom   29 type  1   force =    -2.47693871   -2.35591833    0.61922788
     atom   30 type  1   force =     0.86166544   -4.86137770   -2.31181603
     atom   31 type  1   force =    -1.10410545    3.19066437    0.89471104
     atom   32 type  1   force =    -1.55761839   -1.43698710    1.02360669
     atom   33 type  1   force =     1.22336710    1.61662714    1.34517707
     atom   34 type  1   force =     5.63965960    0.80313131   -0.12985646
     atom   35 type  1   force =    -3.68680599   -3.89158797   -1.73075791
     atom   36 type  1   force =    -1.27871262   -1.94695977    2.03712408
     atom   37 type  1   force =    -0.95806441   -0.04361048   -1.44689514
     atom   38 type  1   force =    -3.35794531    2.22261750    2.52314317
     atom   39 type  1   force =     1.83420792    3.41657035   -1.24147449
     atom   40 type  1   force =    -3.07815336    2.40156894   -0.48078678
     atom   41 type  1   force =    -2.16985049   -0.66740960   -5.47744438
     atom   42 type  1   force =     1.68468778   -0.73827480   -2.06301569
     atom   43 type  1   force =    -3.09767039    1.58823126   -2.12790452
     atom   44 type  1   force =    -2.36062765    3.49786767    3.42603373
     atom   45 type  2   force =    -8.03435857    8.72854858   -8.40203395
     atom   46 type  2   force =     4.78245160   -7.64217897   -0.77644742
     atom   47 type  2   force =     5.11475896    9.09835401   12.67919917
     atom   48 type  2   force =    -8.00754694   -1.70306019   -3.23584837
     atom   49 type  2   force =   -11.21975635  -10.02240758    5.25648808
     atom   50 type  2   force =    10.54090422  -10.79933191    6.96022709
     atom   51 type  2   force =     3.91082236   14.47874072   -3.33105741
     atom   52 type  2   force =     6.40069404   -3.24939281  -14.68727791
     atom   53 type  2   force =     7.66631524    7.77958891   -8.68517710
     atom   54 type  2   force =    -3.03578594  -11.22821943    9.27839310
     atom   55 type  2   force =    13.50288437    5.96056684    5.07414927
     atom   56 type  2   force =     1.92699493   -5.88309667   13.25069804
     atom   57 type  2   force =   -10.98848034   11.96436394   -1.24457220
     atom   58 type  2   force =    12.21567253   -4.01077117   -8.72264234
     atom   59 type  2   force =    -1.19248981  -10.61419481  -11.05268235
     atom   60 type  2   force =     2.20581122    3.25662123    7.55500155
     atom   61 type  2   force =    15.57211604   -1.58875922   -0.99697705
     atom   62 type  2   force =   -10.75988397   -9.14723259   -5.40101884
     atom   63 type  2   force =    -7.63107311   -0.11065245    8.60659850
     atom   64 type  2   force =    -1.16557502   12.62698549    6.08621037
     atom   65 type  2   force =    -7.72357163    0.87242614  -14.43590528
     atom   66 type  2   force =   -12.30309237    3.13849493    8.42784170
     The core correction contribution to forces
     atom    1 type  1   force =     0.00000000    0.00000000    0.00000000
     atom    2 type  1   force =     0.00000000    0.00000000    0.00000000
     atom    3 type  1   force =     0.00000000    0.00000000    0.00000000
     atom    4 type  1   force =     0.00000000    0.00000000    0.00000000
     atom    5 type  1   force =     0.00000000    0.00000000    0.00000000
     atom    6 type  1   force =     0.00000000    0.00000000    0.00000000
     atom    7 type  1   force =     0.00000000    0.00000000    0.00000000
     atom    8 type  1   force =     0.00000000    0.00000000    0.00000000
     atom    9 type  1   force =     0.00000000    0.00000000    0.00000000
     atom   10 type  1   force =     0.00000000    0.00000000    0.00000000
     atom   11 type  1   force =     0.00000000    0.00000000    0.00000000
     atom   12 type  1   force =     0.00000000    0.00000000    0.00000000
     atom   13 type  1   force =     0.00000000    0.00000000    0.00000000
     atom   14 type  1   force =     0.00000000    0.00000000    0.00000000
     atom   15 type  1   force =     0.00000000    0.00000000    0.00000000
     atom   16 type  1   force =     0.00000000    0.00000000    0.00000000
     atom   17 type  1   force =     0.00000000    0.00000000    0.00000000
     atom   18 type  1   force =     0.00000000    0.00000000    0.00000000
     atom   19 type  1   force =     0.00000000    0.00000000    0.00000000
     atom   20 type  1   force =     0.00000000    0.00000000    0.00000000
     atom   21 type  1   force =     0.00000000    0.00000000    0.00000000
     atom   22 type  1   force =     0.00000000    0.00000000    0.00000000
     atom   23 type  1   force =     0.00000000    0.00000000    0.00000000
     atom   24 type  1   force =     0.00000000    0.00000000    0.00000000
     atom   25 type  1   force =     0.00000000    0.00000000    0.00000000
     atom   26 type  1   force =     0.00000000    0.00000000    0.00000000
     atom   27 type  1   force =     0.00000000    0.00000000    0.00000000
     atom   28 type  1   force =     0.00000000    0.00000000    0.00000000
     atom   29 type  1   force =     0.00000000    0.00000000    0.00000000
     atom   30 type  1   force =     0.00000000    0.00000000    0.00000000
     atom   31 type  1   force =     0.00000000    0.00000000    0.00000000
     atom   32 type  1   force =     0.00000000    0.00000000    0.00000000
     atom   33 type  1   force =     0.00000000    0.00000000    0.00000000
     atom   34 type  1   force =     0.00000000    0.00000000    0.00000000
     atom   35 type  1   force =     0.00000000    0.00000000    0.00000000
     atom   36 type  1   force =     0.00000000    0.00000000    0.00000000
     atom   37 type  1   force =     0.00000000    0.00000000    0.00000000
     atom   38 type  1   force =     0.00000000    0.00000000    0.00000000
     atom   39 type  1   force =     0.00000000    0.00000000    0.00000000
     atom   40 type  1   force =     0.00000000    0.00000000    0.00000000
     atom   41 type  1   force =     0.00000000    0.00000000    0.00000000
     atom   42 type  1   force =     0.00000000    0.00000000    0.00000000
     atom   43 type  1   force =     0.00000000    0.00000000    0.00000000
     atom   44 type  1   force =     0.00000000    0.00000000    0.00000000
     atom   45 type  2   force =     0.01503391   -0.00903827   -0.00337108
     atom   46 type  2   force =    -0.01862084   -0.00739275   -0.00177461
     atom   47 type  2   force =    -0.02023396   -0.00250120    0.00448608
     atom   48 type  2   force =    -0.00705135   -0.00709123   -0.01443257
     atom   49 type  2   force =     0.00396911   -0.00403216    0.01844451
     atom   50 type  2   force =    -0.00374101    0.01304442   -0.01498124
     atom   51 type  2   force =     0.01656721   -0.00601984   -0.01574283
     atom   52 type  2   force =     0.00604389   -0.01655214    0.00712654
     atom   53 type  2   force =     0.00474792   -0.01741512   -0.00978021
     atom   54 type  2   force =     0.00945284    0.01092256    0.00885270
     atom   55 type  2   force =    -0.01794023    0.00210738    0.00707334
     atom   56 type  2   force =     0.01979424   -0.00271215    0.00823436
     atom   57 type  2   force =     0.00074031   -0.00465500   -0.02155442
     atom   58 type  2   force =     0.00180522   -0.00099903    0.01681159
     atom   59 type  2   force =    -0.00581080   -0.02057156    0.00776442
     atom   60 type  2   force =    -0.01681425    0.00064918   -0.00470824
     atom   61 type  2   force =     0.01113147    0.01406340    0.00693801
     atom   62 type  2   force =    -0.00794842   -0.01556406    0.00585085
     atom   63 type  2   force =    -0.00819361    0.01118633   -0.00943250
     atom   64 type  2   force =    -0.00372449    0.00730187   -0.01771542
     atom   65 type  2   force =     0.00660369   -0.00812382   -0.01521215
     atom   66 type  2   force =    -0.00726362    0.02066674   -0.00414363
     The Hubbard contrib.    to forces
     atom    1 type  1   force =     0.00000000    0.00000000    0.00000000
     atom    2 type  1   force =     0.00000000    0.00000000    0.00000000
     atom    3 type  1   force =     0.00000000    0.00000000    0.00000000
     atom    4 type  1   force =     0.00000000    0.00000000    0.00000000
     atom    5 type  1   force =     0.00000000    0.00000000    0.00000000
     atom    6 type  1   force =     0.00000000    0.00000000    0.00000000
     atom    7 type  1   force =     0.00000000    0.00000000    0.00000000
     atom    8 type  1   force =     0.00000000    0.00000000    0.00000000
     atom    9 type  1   force =     0.00000000    0.00000000    0.00000000
     atom   10 type  1   force =     0.00000000    0.00000000    0.00000000
     atom   11 type  1   force =     0.00000000    0.00000000    0.00000000
     atom   12 type  1   force =     0.00000000    0.00000000    0.00000000
     atom   13 type  1   force =     0.00000000    0.00000000    0.00000000
     atom   14 type  1   force =     0.00000000    0.00000000    0.00000000
     atom   15 type  1   force =     0.00000000    0.00000000    0.00000000
     atom   16 type  1   force =     0.00000000    0.00000000    0.00000000
     atom   17 type  1   force =     0.00000000    0.00000000    0.00000000
     atom   18 type  1   force =     0.00000000    0.00000000    0.00000000
     atom   19 type  1   force =     0.00000000    0.00000000    0.00000000
     atom   20 type  1   force =     0.00000000    0.00000000    0.00000000
     atom   21 type  1   force =     0.00000000    0.00000000    0.00000000
     atom   22 type  1   force =     0.00000000    0.00000000    0.00000000
     atom   23 type  1   force =     0.00000000    0.00000000    0.00000000
     atom   24 type  1   force =     0.00000000    0.00000000    0.00000000
     atom   25 type  1   force =     0.00000000    0.00000000    0.00000000
     atom   26 type  1   force =     0.00000000    0.00000000    0.00000000
     atom   27 type  1   force =     0.00000000    0.00000000    0.00000000
     atom   28 type  1   force =     0.00000000    0.00000000    0.00000000
     atom   29 type  1   force =     0.00000000    0.00000000    0.00000000
     atom   30 type  1   force =     0.00000000    0.00000000    0.00000000
     atom   31 type  1   force =     0.00000000    0.00000000    0.00000000
     atom   32 type  1   force =     0.00000000    0.00000000    0.00000000
     atom   33 type  1   force =     0.00000000    0.00000000    0.00000000
     atom   34 type  1   force =     0.00000000    0.00000000    0.00000000
     atom   35 type  1   force =     0.00000000    0.00000000    0.00000000
     atom   36 type  1   force =     0.00000000    0.00000000    0.00000000
     atom   37 type  1   force =     0.00000000    0.00000000    0.00000000
     atom   38 type  1   force =     0.00000000    0.00000000    0.00000000
     atom   39 type  1   force =     0.00000000    0.00000000    0.00000000
     atom   40 type  1   force =     0.00000000    0.00000000    0.00000000
     atom   41 type  1   force =     0.00000000    0.00000000    0.00000000
     atom   42 type  1   force =     0.00000000    0.00000000    0.00000000
     atom   43 type  1   force =     0.00000000    0.00000000    0.00000000
     atom   44 type  1   force =     0.00000000    0.00000000    0.00000000
     atom   45 type  2   force =     0.00000000    0.00000000    0.00000000
     atom   46 type  2   force =     0.00000000    0.00000000    0.00000000
     atom   47 type  2   force =     0.00000000    0.00000000    0.00000000
     atom   48 type  2   force =     0.00000000    0.00000000    0.00000000
     atom   49 type  2   force =     0.00000000    0.00000000    0.00000000
     atom   50 type  2   force =     0.00000000    0.00000000    0.00000000
     atom   51 type  2   force =     0.00000000    0.00000000    0.00000000
     atom   52 type  2   force =     0.00000000    0.00000000    0.00000000
     atom   53 type  2   force =     0.00000000    0.00000000    0.00000000
     atom   54 type  2   force =     0.00000000    0.00000000    0.00000000
     atom   55 type  2   force =     0.00000000    0.00000000    0.00000000
     atom   56 type  2   force =     0.00000000    0.00000000    0.00000000
     atom   57 type  2   force =     0.00000000    0.00000000    0.00000000
     atom   58 type  2   force =     0.00000000    0.00000000    0.00000000
     atom   59 type  2   force =     0.00000000    0.00000000    0.00000000
     atom   60 type  2   force =     0.00000000    0.00000000    0.00000000
     atom   61 type  2   force =     0.00000000    0.00000000    0.00000000
     atom   62 type  2   force =     0.00000000    0.00000000    0.00000000
     atom   63 type  2   force =     0.00000000    0.00000000    0.00000000
     atom   64 type  2   force =     0.00000000    0.00000000    0.00000000
     atom   65 type  2   force =     0.00000000    0.00000000    0.00000000
     atom   66 type  2   force =     0.00000000    0.00000000    0.00000000
     The SCF correction term to forces
     atom    1 type  1   force =     0.00000024    0.00000489   -0.00000079
     atom    2 type  1   force =     0.00000439    0.00000562    0.00000691
     atom    3 type  1   force =    -0.00003042   -0.00002602    0.00001810
     atom    4 type  1   force =    -0.00004178    0.00000017   -0.00002066
     atom    5 type  1   force =    -0.00002624    0.00000598    0.00002238
     atom    6 type  1   force =    -0.00001429    0.00000466    0.00000687
     atom    7 type  1   force =    -0.00000004    0.00000371    0.00000424
     atom    8 type  1   force =    -0.00000588   -0.00000218    0.00000940
     atom    9 type  1   force =     0.00000406    0.00000765    0.00000791
     atom   10 type  1   force =    -0.00000112   -0.00000403    0.00001350
     atom   11 type  1   force =     0.00001354    0.00000354    0.00000022
     atom   12 type  1   force =     0.00000647    0.00000530   -0.00000982
     atom   13 type  1   force =     0.00000345   -0.00000843   -0.00000472
     atom   14 type  1   force =    -0.00000140    0.00001233    0.00000099
     atom   15 type  1   force =    -0.00000393   -0.00001274   -0.00000014
     atom   16 type  1   force =     0.00000899   -0.00001106   -0.00000004
     atom   17 type  1   force =    -0.00000753   -0.00000100   -0.00003051
     atom   18 type  1   force =     0.00001330   -0.00001872    0.00001400
     atom   19 type  1   force =    -0.00000187    0.00000146    0.00000286
     atom   20 type  1   force =     0.00000081    0.00000203    0.00000601
     atom   21 type  1   force =    -0.00001711    0.00001168    0.00003078
     atom   22 type  1   force =    -0.00002160    0.00000104   -0.00000444
     atom   23 type  1   force =     0.00001897   -0.00000343    0.00000373
     atom   24 type  1   force =     0.00001175   -0.00000310    0.00001766
     atom   25 type  1   force =     0.00000056    0.00001037    0.00000985
     atom   26 type  1   force =     0.00000843   -0.00000829    0.00000507
     atom   27 type  1   force =     0.00000314   -0.00000999    0.00001408
     atom   28 type  1   force =     0.00001952    0.00000166    0.00002343
     atom   29 type  1   force =    -0.00002949   -0.00001726    0.00003689
     atom   30 type  1   force =     0.00000778   -0.00004638   -0.00000693
     atom   31 type  1   force =    -0.00002818    0.00002618   -0.00000108
     atom   32 type  1   force =    -0.00005382   -0.00002915   -0.00001060
     atom   33 type  1   force =     0.00000715   -0.00001873   -0.00000724
     atom   34 type  1   force =     0.00000513   -0.00000142    0.00000076
     atom   35 type  1   force =    -0.00000033   -0.00000229    0.00000749
     atom   36 type  1   force =    -0.00000346   -0.00000216   -0.00000608
     atom   37 type  1   force =    -0.00000762    0.00000237   -0.00001187
     atom   38 type  1   force =     0.00000077    0.00000158   -0.00000576
     atom   39 type  1   force =     0.00001096    0.00001998   -0.00004177
     atom   40 type  1   force =    -0.00004328    0.00001052   -0.00004002
     atom   41 type  1   force =    -0.00000342   -0.00000205   -0.00001390
     atom   42 type  1   force =     0.00000290   -0.00000580   -0.00000250
     atom   43 type  1   force =    -0.00000279    0.00001987   -0.00002632
     atom   44 type  1   force =    -0.00000683    0.00002333    0.00000252
     atom   45 type  2   force =     0.00006730   -0.00003713   -0.00003338
     atom   46 type  2   force =    -0.00020146   -0.00010161   -0.00000721
     atom   47 type  2   force =    -0.00021841   -0.00000507    0.00009302
     atom   48 type  2   force =    -0.00004254   -0.00002454    0.00003418
     atom   49 type  2   force =     0.00003694    0.00001004    0.00006339
     atom   50 type  2   force =     0.00008902    0.00011292   -0.00014306
     atom   51 type  2   force =     0.00010002   -0.00012467   -0.00012152
     atom   52 type  2   force =    -0.00008805   -0.00017637   -0.00000701
     atom   53 type  2   force =     0.00001160   -0.00003243   -0.00004864
     atom   54 type  2   force =     0.00006716    0.00009954    0.00010364
     atom   55 type  2   force =    -0.00021601    0.00005331    0.00008729
     atom   56 type  2   force =     0.00012541   -0.00003990    0.00017261
     atom   57 type  2   force =     0.00005721   -0.00004283   -0.00008937
     atom   58 type  2   force =     0.00008020   -0.00003072    0.00022918
     atom   59 type  2   force =    -0.00004741   -0.00022659    0.00005033
     atom   60 type  2   force =    -0.00022171    0.00008656   -0.00003159
     atom   61 type  2   force =     0.00009385    0.00001567    0.00002632
     atom   62 type  2   force =    -0.00005942   -0.00008354    0.00013526
     atom   63 type  2   force =    -0.00012718    0.00012023   -0.00006052
     atom   64 type  2   force =    -0.00010380    0.00010012   -0.00025467
     atom   65 type  2   force =     0.00000572   -0.00001977   -0.00010393
     atom   66 type  2   force =    -0.00006828    0.00016762   -0.00010391

     Total force =     0.525453     Total SCF correction =     0.000899


     Computing stress (Cartesian axis) and pressure


     negative rho (up, down):  5.067E-01 0.000E+00
          total   stress  (Ry/bohr**3)                   (kbar)     P=       -2.81
  -0.00001944   0.00000017  -0.00000001           -2.86        0.03       -0.00
   0.00000017  -0.00001894  -0.00000021            0.03       -2.79       -0.03
  -0.00000001  -0.00000021  -0.00001900           -0.00       -0.03       -2.79


     init_run     :      7.55s CPU      7.91s WALL (       1 calls)
     electrons    :     74.43s CPU     79.57s WALL (       1 calls)
     forces       :      5.56s CPU      5.83s WALL (       1 calls)
     stress       :     16.68s CPU     17.02s WALL (       1 calls)

     Called by init_run:
     wfcinit      :      2.77s CPU      2.93s WALL (       1 calls)
     potinit      :      1.29s CPU      1.35s WALL (       1 calls)
     hinit0       :      1.03s CPU      1.08s WALL (       1 calls)

     Called by electrons:
     c_bands      :     50.13s CPU     52.67s WALL (      10 calls)
     sum_band     :     13.64s CPU     14.81s WALL (      10 calls)
     v_of_rho     :      6.40s CPU      7.01s WALL (      11 calls)
     newd         :      2.98s CPU      3.75s WALL (      11 calls)
     PAW_pot      :      1.06s CPU      1.07s WALL (      11 calls)
     mix_rho      :      0.98s CPU      1.08s WALL (      10 calls)

     Called by c_bands:
     init_us_2    :      0.66s CPU      0.69s WALL (      21 calls)
     init_us_2:cp :      0.66s CPU      0.69s WALL (      21 calls)
     regterg      :     49.21s CPU     51.75s WALL (      10 calls)

     Called by *egterg:
     rdiaghg      :      0.23s CPU      0.23s WALL (      31 calls)
     h_psi        :     44.14s CPU     46.34s WALL (      32 calls)
     s_psi        :      1.38s CPU      1.39s WALL (      32 calls)
     g_psi        :      0.14s CPU      0.14s WALL (      21 calls)

     Called by h_psi:
     h_psi:calbec :      1.42s CPU      1.44s WALL (      32 calls)
     vloc_psi     :     40.97s CPU     43.14s WALL (      32 calls)
     add_vuspsi   :      1.38s CPU      1.39s WALL (      32 calls)

     General routines
     calbec       :      2.11s CPU      2.13s WALL (      47 calls)
     fft          :      3.52s CPU      4.05s WALL (     119 calls)
     ffts         :      0.24s CPU      0.27s WALL (      10 calls)
     fftw         :     36.31s CPU     38.81s WALL (    2884 calls)

     Parallel routines

     PWSCF        :   1m44.33s CPU   1m50.50s WALL


   This run was terminated on:   0:41:10  28Mar2024            

=------------------------------------------------------------------------------=
   JOB DONE.
=------------------------------------------------------------------------------=
