
     Program PWSCF v.7.2 starts on 27Mar2024 at 10:32:27 

     This program is part of the open-source Quantum ESPRESSO suite
     for quantum simulation of materials; please cite
         "P. Giannozzi et al., J. Phys.:Condens. Matter 21 395502 (2009);
         "P. Giannozzi et al., J. Phys.:Condens. Matter 29 465901 (2017);
         "P. Giannozzi et al., J. Chem. Phys. 152 154105 (2020);
          URL http://www.quantum-espresso.org", 
     in publications or presentations arising from this work. More details at
     http://www.quantum-espresso.org/quote

     Parallel version (MPI), running on    32 processors

     MPI processes distributed on     1 nodes
     170120 MiB available memory on the printing compute node when the environment starts

     Reading input from pw-wt-236.in
Warning: card &CELL ignored
Warning: card / ignored

     Current dimensions of program PWSCF are:
     Max number of different atomic species (ntypx) = 10
     Max number of k-points (npk) =  40000
     Max angular momentum in pseudopotentials (lmaxx) =  4
     file O.pbe-n-kjpaw_psl.0.1.UPF: wavefunction(s)  2P renormalized

     IMPORTANT: XC functional enforced from input :
     Exchange-correlation= PBE
                           (   1   4   3   4   0   0   0)
     Any further DFT definition will be discarded
     Please, verify this is what you really want


     gamma-point specific algorithms are used

     R & G space division:  proc/nbgrp/npool/nimage =      32
     Subspace diagonalization in iterative solution of the eigenvalue problem:
     a serial algorithm will be used


     Parallelization info
     --------------------
     sticks:   dense  smooth     PW     G-vecs:    dense   smooth      PW
     Min        1707    1707    426               301015   301015   37634
     Max        1710    1710    428               301034   301034   37648
     Sum       54693   54693  13673              9632757  9632757 1204469

     Using Slab Decomposition



     bravais-lattice index     =            0
     lattice parameter (alat)  =      75.7119  a.u.
     unit-cell volume          =  434002.3113 (a.u.)^3
     number of atoms/cell      =           66
     number of atomic types    =            2
     number of electrons       =       176.00
     number of Kohn-Sham states=           88
     kinetic-energy cutoff     =      30.0000  Ry
     charge density cutoff     =     120.0000  Ry
     scf convergence threshold =      1.0E-06
     mixing beta               =       0.5000
     number of iterations used =            8  plain     mixing
     Exchange-correlation= PBE
                           (   1   4   3   4   0   0   0)

     celldm(1)=  75.711877  celldm(2)=   0.000000  celldm(3)=   0.000000
     celldm(4)=   0.000000  celldm(5)=   0.000000  celldm(6)=   0.000000

     crystal axes: (cart. coord. in units of alat)
               a(1) = (   1.000000   0.000000   0.000000 )  
               a(2) = (   0.000000   1.000000   0.000000 )  
               a(3) = (   0.000000   0.000000   1.000000 )  

     reciprocal axes: (cart. coord. in units 2 pi/alat)
               b(1) = (  1.000000  0.000000  0.000000 )  
               b(2) = (  0.000000  1.000000  0.000000 )  
               b(3) = (  0.000000  0.000000  1.000000 )  


     PseudoPot. # 1 for H  read from file:
     /share/pfaendtnergroup/rverma7/QE_PP/H.pbe-rrkjus_psl.1.0.0.UPF
     MD5 check sum: f52b6d4d1c606e5624b1dc7b2218f220
     Pseudo is Ultrasoft, Zval =  1.0
     Generated using "atomic" code by A. Dal Corso  v.5.1
     Using radial grid of  929 points,  2 beta functions with: 
                l(1) =   0
                l(2) =   0
     Q(r) pseudized with 0 coefficients 


     PseudoPot. # 2 for O  read from file:
     /share/pfaendtnergroup/rverma7/QE_PP/O.pbe-n-kjpaw_psl.0.1.UPF
     MD5 check sum: 0234752ac141de4415c5fc33072bef88
     Pseudo is Projector augmented-wave + core cor, Zval =  6.0
     Generated using "atomic" code by A. Dal Corso  v.5.0.99 svn rev. 10869
     Shape of augmentation charge: BESSEL
     Using radial grid of 1095 points,  4 beta functions with: 
                l(1) =   0
                l(2) =   0
                l(3) =   1
                l(4) =   1
     Q(r) pseudized with 0 coefficients 


     atomic species   valence    mass     pseudopotential
        H              1.00     1.00800     H ( 1.00)
        O              6.00    15.99900     O ( 1.00)

     No symmetry found



   Cartesian axes

     site n.     atom                  positions (alat units)
         1           H   tau(   1) = (   0.2072882   0.2738799   0.4179708  )
         2           H   tau(   2) = (   0.2185199   0.3068014   0.4018470  )
         3           H   tau(   3) = (   0.3154873   0.1710221   0.3503307  )
         4           H   tau(   4) = (   0.3150630   0.2061650   0.3753401  )
         5           H   tau(   5) = (   0.2187445   0.3482840   0.3709472  )
         6           H   tau(   6) = (   0.2285786   0.3142144   0.3541994  )
         7           H   tau(   7) = (   0.3713466   0.2065893   0.4256833  )
         8           H   tau(   8) = (   0.3494571   0.2219893   0.4523899  )
         9           H   tau(   9) = (   0.2510171   0.3102209   0.4477225  )
        10           H   tau(  10) = (   0.2692125   0.3274679   0.4831399  )
        11           H   tau(  11) = (   0.3005366   0.2719830   0.4620492  )
        12           H   tau(  12) = (   0.3320105   0.2712592   0.4382628  )
        13           H   tau(  13) = (   0.4682890   0.1518532   0.4565581  )
        14           H   tau(  14) = (   0.4303257   0.1602147   0.4595033  )
        15           H   tau(  15) = (   0.2921752   0.3745913   0.2950456  )
        16           H   tau(  16) = (   0.2753026   0.3701235   0.3304380  )
        17           H   tau(  17) = (   0.3116186   0.1756396   0.4540372  )
        18           H   tau(  18) = (   0.3067016   0.1716461   0.4132035  )
        19           H   tau(  19) = (   0.2574816   0.1911394   0.3171347  )
        20           H   tau(  20) = (   0.2504929   0.1889430   0.2774991  )
        21           H   tau(  21) = (   0.3271933   0.2611506   0.3920629  )
        22           H   tau(  22) = (   0.3638837   0.2687633   0.3952577  )
        23           H   tau(  23) = (   0.2502683   0.1652065   0.3657806  )
        24           H   tau(  24) = (   0.2408336   0.1312367   0.3418195  )
        25           H   tau(  25) = (   0.2934981   0.3347311   0.4200674  )
        26           H   tau(  26) = (   0.3188069   0.3116935   0.3992263  )
        27           H   tau(  27) = (   0.4017721   0.1689255   0.5143642  )
        28           H   tau(  28) = (   0.3914639   0.1892425   0.4802945  )
        29           H   tau(  29) = (   0.3591164   0.1986272   0.3747660  )
        30           H   tau(  30) = (   0.3959316   0.1897417   0.3780107  )
        31           H   tau(  31) = (   0.1984775   0.2452764   0.3715712  )
        32           H   tau(  32) = (   0.1700986   0.2266816   0.3877200  )
        33           H   tau(  33) = (   0.2846375   0.3647323   0.3834519  )
        34           H   tau(  34) = (   0.2647947   0.3997504   0.3900412  )
        35           H   tau(  35) = (   0.2225384   0.2027955   0.4067390  )
        36           H   tau(  36) = (   0.2578061   0.1850992   0.4155248  )
        37           H   tau(  37) = (   0.4257082   0.1514788   0.4058155  )
        38           H   tau(  38) = (   0.4332210   0.1440160   0.3693498  )
        39           H   tau(  39) = (   0.2349183   0.2657931   0.3303382  )
        40           H   tau(  40) = (   0.2234868   0.2312991   0.3165107  )
        41           H   tau(  41) = (   0.2764508   0.3164358   0.3594908  )
        42           H   tau(  42) = (   0.2647198   0.3156371   0.3197554  )
        43           H   tau(  43) = (   0.2689380   0.2284288   0.3731936  )
        44           H   tau(  44) = (   0.2836890   0.2609510   0.3527268  )
        45           O   tau(  45) = (   0.2228379   0.2921253   0.4233620  )
        46           O   tau(  46) = (   0.3250468   0.1831025   0.3717210  )
        47           O   tau(  47) = (   0.2089604   0.3240484   0.3693248  )
        48           O   tau(  48) = (   0.3661550   0.2039186   0.4499189  )
        49           O   tau(  49) = (   0.2704855   0.3238238   0.4580307  )
        50           O   tau(  50) = (   0.3235742   0.2619993   0.4616249  )
        51           O   tau(  51) = (   0.4472732   0.1506302   0.4435293  )
        52           O   tau(  52) = (   0.2812929   0.3580432   0.3100711  )
        53           O   tau(  53) = (   0.2941221   0.1759141   0.4355173  )
        54           O   tau(  54) = (   0.2500187   0.2040933   0.2978909  )
        55           O   tau(  55) = (   0.3421939   0.2790465   0.4016473  )
        56           O   tau(  56) = (   0.2552852   0.1534756   0.3423437  )
        57           O   tau(  57) = (   0.3011856   0.3299139   0.3955323  )
        58           O   tau(  58) = (   0.4102583   0.1760889   0.4918258  )
        59           O   tau(  59) = (   0.3804568   0.2099588   0.3836016  )
        60           O   tau(  60) = (   0.1891926   0.2397354   0.3945838  )
        61           O   tau(  61) = (   0.2671908   0.3809310   0.3733932  )
        62           O   tau(  62) = (   0.2412829   0.1884687   0.3966554  )
        63           O   tau(  63) = (   0.4141021   0.1524772   0.3826282  )
        64           O   tau(  64) = (   0.2167727   0.2485461   0.3323849  )
        65           O   tau(  65) = (   0.2651691   0.3007113   0.3412205  )
        66           O   tau(  66) = (   0.2900287   0.2421066   0.3685761  )

     number of k points=     1
                       cart. coord. in units 2pi/alat
        k(    1) = (   0.0000000   0.0000000   0.0000000), wk =   2.0000000

     Dense  grid:  4816379 G-vectors     FFT dimensions: ( 270, 270, 270)

     Estimated max dynamical RAM per process >     612.29 MB

     Estimated total dynamical RAM >      19.13 GB

     Check: negative core charge=   -0.000006

     Initial potential from superposition of free atoms

     starting charge     175.9995, renormalised to     176.0000

     negative rho (up, down):  3.734E-01 0.000E+00
     Starting wfcs are  132 randomized atomic wfcs
     Checking if some PAW data can be deallocated... 

     total cpu time spent up to now is        8.8 secs

     Self-consistent Calculation

     iteration #  1     ecut=    30.00 Ry     beta= 0.50
     Davidson diagonalization with overlap
     ethr =  1.00E-02,  avg # of iterations =  2.0

     negative rho (up, down):  4.413E-01 0.000E+00

     total cpu time spent up to now is       17.8 secs

     total energy              =    -965.80584641 Ry
     estimated scf accuracy    <       6.82729147 Ry

     iteration #  2     ecut=    30.00 Ry     beta= 0.50
     Davidson diagonalization with overlap
     ethr =  3.88E-03,  avg # of iterations =  2.0

     negative rho (up, down):  4.616E-01 0.000E+00

     total cpu time spent up to now is       27.3 secs

     total energy              =    -967.71967450 Ry
     estimated scf accuracy    <       0.98910244 Ry

     iteration #  3     ecut=    30.00 Ry     beta= 0.50
     Davidson diagonalization with overlap
     ethr =  5.62E-04,  avg # of iterations =  2.0

     negative rho (up, down):  5.073E-01 0.000E+00

     total cpu time spent up to now is       35.7 secs

     total energy              =    -967.77058193 Ry
     estimated scf accuracy    <       0.12995867 Ry

     iteration #  4     ecut=    30.00 Ry     beta= 0.50
     Davidson diagonalization with overlap
     ethr =  7.38E-05,  avg # of iterations =  3.0

     negative rho (up, down):  5.067E-01 0.000E+00

     total cpu time spent up to now is       45.5 secs

     total energy              =    -967.79432772 Ry
     estimated scf accuracy    <       0.04139542 Ry

     iteration #  5     ecut=    30.00 Ry     beta= 0.50
     Davidson diagonalization with overlap
     ethr =  2.35E-05,  avg # of iterations =  2.0

     negative rho (up, down):  5.057E-01 0.000E+00

     total cpu time spent up to now is       54.2 secs

     total energy              =    -967.79480449 Ry
     estimated scf accuracy    <       0.00792095 Ry

     iteration #  6     ecut=    30.00 Ry     beta= 0.50
     Davidson diagonalization with overlap
     ethr =  4.50E-06,  avg # of iterations =  2.0

     negative rho (up, down):  5.048E-01 0.000E+00

     total cpu time spent up to now is       63.6 secs

     total energy              =    -967.79498777 Ry
     estimated scf accuracy    <       0.00160789 Ry

     iteration #  7     ecut=    30.00 Ry     beta= 0.50
     Davidson diagonalization with overlap
     ethr =  9.14E-07,  avg # of iterations =  2.0

     negative rho (up, down):  5.046E-01 0.000E+00

     total cpu time spent up to now is       72.5 secs

     total energy              =    -967.79525795 Ry
     estimated scf accuracy    <       0.00009425 Ry

     iteration #  8     ecut=    30.00 Ry     beta= 0.50
     Davidson diagonalization with overlap
     ethr =  5.36E-08,  avg # of iterations =  3.0

     negative rho (up, down):  5.046E-01 0.000E+00

     total cpu time spent up to now is       82.1 secs

     total energy              =    -967.79528779 Ry
     estimated scf accuracy    <       0.00000891 Ry

     iteration #  9     ecut=    30.00 Ry     beta= 0.50
     Davidson diagonalization with overlap
     ethr =  5.06E-09,  avg # of iterations =  2.0

     negative rho (up, down):  5.047E-01 0.000E+00

     total cpu time spent up to now is       90.8 secs

     total energy              =    -967.79528754 Ry
     estimated scf accuracy    <       0.00000492 Ry

     iteration # 10     ecut=    30.00 Ry     beta= 0.50
     Davidson diagonalization with overlap
     ethr =  2.80E-09,  avg # of iterations =  2.0

     negative rho (up, down):  5.047E-01 0.000E+00

     total cpu time spent up to now is       99.0 secs

     End of self-consistent calculation

          k = 0.0000 0.0000 0.0000 (602235 PWs)   bands (ev):

   -26.6653 -26.0113 -25.8332 -25.6197 -25.5257 -25.4496 -25.3913 -25.3117
   -25.2428 -25.0227 -24.9616 -24.8450 -24.7481 -24.7163 -24.5936 -24.5217
   -24.5000 -24.3514 -24.2479 -23.8495 -23.7133 -23.6830 -14.1455 -14.0254
   -13.7690 -13.6248 -13.4881 -13.3291 -13.3097 -13.1892 -13.0879 -12.9076
   -12.8228 -12.7438 -12.6638 -12.5126 -12.3890 -12.2211 -12.1643 -11.9606
   -11.9543 -11.8467 -11.6447 -11.6137 -11.3417 -10.9588 -10.7592 -10.6084
   -10.4921 -10.3432 -10.1435 -10.0143  -9.9281  -9.6966  -9.6120  -9.4657
    -9.3288  -9.1865  -9.1337  -9.0514  -8.9168  -8.8033  -8.6284  -8.4233
    -8.3062  -7.9920  -7.9178  -7.9017  -7.7940  -7.7520  -7.7390  -7.6414
    -7.6127  -7.5460  -7.5296  -7.4418  -7.0931  -7.0820  -7.0720  -7.0385
    -6.9943  -6.8980  -6.8239  -6.6546  -6.5477  -6.3843  -6.2914  -6.1715

     highest occupied level (ev):    -6.1715

!    total energy              =    -967.79528769 Ry
     estimated scf accuracy    <       0.00000055 Ry

     The total energy is the sum of the following terms:
     one-electron contribution =   -5767.87698149 Ry
     hartree contribution      =    2918.66421637 Ry
     xc contribution           =    -193.72255533 Ry
     ewald contribution        =    2284.45827138 Ry
     one-center paw contrib.   =    -209.31823862 Ry

     convergence has been achieved in  10 iterations

     negative rho (up, down):  5.047E-01 0.000E+00

     Forces acting on atoms (cartesian axes, Ry/au):

     atom    1 type  1   force =    -0.00038647   -0.01370903    0.01878566
     atom    2 type  1   force =     0.00710963   -0.01603127    0.04361128
     atom    3 type  1   force =     0.02206426    0.06402011    0.08680131
     atom    4 type  1   force =    -0.01379680   -0.02995515   -0.04552713
     atom    5 type  1   force =    -0.03993711   -0.07457205    0.00276186
     atom    6 type  1   force =    -0.06119734    0.01426094    0.04570649
     atom    7 type  1   force =     0.02560597   -0.01509215   -0.02089214
     atom    8 type  1   force =    -0.00501585    0.00417297    0.02809204
     atom    9 type  1   force =     0.00829198    0.01240278    0.03186203
     atom   10 type  1   force =    -0.01289716   -0.01816303   -0.07382199
     atom   11 type  1   force =     0.03235276   -0.01701356    0.00664150
     atom   12 type  1   force =    -0.01742843   -0.02700154    0.07988292
     atom   13 type  1   force =    -0.02027450   -0.00059988   -0.02105339
     atom   14 type  1   force =     0.01103041   -0.01001291    0.00870476
     atom   15 type  1   force =    -0.01681941   -0.02356116    0.02103183
     atom   16 type  1   force =    -0.00323063    0.02523821    0.01952368
     atom   17 type  1   force =    -0.03714099    0.00547841   -0.05666947
     atom   18 type  1   force =    -0.01518843    0.00974525    0.06589199
     atom   19 type  1   force =    -0.00327272   -0.04172715    0.00313915
     atom   20 type  1   force =    -0.00017327    0.03342537    0.06342657
     atom   21 type  1   force =    -0.01351065    0.02395404    0.00468681
     atom   22 type  1   force =     0.00522147    0.01773224    0.00796134
     atom   23 type  1   force =    -0.00764695   -0.03854819   -0.05995300
     atom   24 type  1   force =     0.06448434    0.10559651    0.00776975
     atom   25 type  1   force =     0.00394785   -0.02774882   -0.05098586
     atom   26 type  1   force =    -0.01374827    0.03535915   -0.02113463
     atom   27 type  1   force =     0.01414576    0.01249277   -0.04950664
     atom   28 type  1   force =     0.01887741   -0.01454065    0.00953971
     atom   29 type  1   force =     0.03230153    0.02037494    0.01280499
     atom   30 type  1   force =    -0.00942387    0.04475215    0.02718970
     atom   31 type  1   force =     0.00902737   -0.00232693    0.01216443
     atom   32 type  1   force =    -0.02968739   -0.01150230    0.00887008
     atom   33 type  1   force =    -0.02567422    0.03020399   -0.01749728
     atom   34 type  1   force =     0.00712915   -0.04054362   -0.03904324
     atom   35 type  1   force =     0.03355280   -0.02499622   -0.03971006
     atom   36 type  1   force =    -0.01030660    0.00023254   -0.00604261
     atom   37 type  1   force =    -0.02421842    0.00804826   -0.03521126
     atom   38 type  1   force =    -0.02250471    0.00919648   -0.00396767
     atom   39 type  1   force =    -0.03273709   -0.02373444    0.00841900
     atom   40 type  1   force =     0.00920754   -0.02762707   -0.02173257
     atom   41 type  1   force =    -0.01988553   -0.05728524   -0.04143473
     atom   42 type  1   force =     0.02499304   -0.03312352    0.06019790
     atom   43 type  1   force =     0.03517910    0.03678825   -0.00273989
     atom   44 type  1   force =     0.00341524   -0.02876650    0.02527514
     atom   45 type  2   force =     0.00065463    0.03028402   -0.03238599
     atom   46 type  2   force =    -0.05707061   -0.04908061   -0.05430856
     atom   47 type  2   force =     0.08841218    0.07878026   -0.05690520
     atom   48 type  2   force =    -0.02554247    0.01380485    0.00773676
     atom   49 type  2   force =     0.00109263    0.00087512    0.02816524
     atom   50 type  2   force =    -0.01378188    0.03479765   -0.05656516
     atom   51 type  2   force =     0.01078270    0.00072468    0.00767035
     atom   52 type  2   force =     0.01585033    0.00608240   -0.04542319
     atom   53 type  2   force =     0.06008952   -0.02037934   -0.01752473
     atom   54 type  2   force =     0.00169551   -0.00001191   -0.08579028
     atom   55 type  2   force =     0.01302878   -0.05674619   -0.04566090
     atom   56 type  2   force =    -0.05384674   -0.06998998    0.05683105
     atom   57 type  2   force =    -0.00223083   -0.00561611    0.07236421
     atom   58 type  2   force =    -0.04087873    0.01126127    0.03810133
     atom   59 type  2   force =     0.01076291   -0.04192569   -0.02838338
     atom   60 type  2   force =     0.02385762   -0.00233622   -0.02440284
     atom   61 type  2   force =     0.01429326    0.01835590    0.04654445
     atom   62 type  2   force =    -0.01838405    0.04000063    0.04893972
     atom   63 type  2   force =     0.05829183   -0.02279936    0.03689158
     atom   64 type  2   force =     0.00876830    0.06072667    0.02210519
     atom   65 type  2   force =     0.02451727    0.08510207   -0.01740319
     atom   66 type  2   force =    -0.03219698   -0.00720312   -0.00441484
     The non-local contrib.  to forces
     atom    1 type  1   force =     0.06760883    0.07951729    0.02305376
     atom    2 type  1   force =     0.01176152   -0.04141435    0.05856615
     atom    3 type  1   force =     0.02838924    0.04164822    0.06658853
     atom    4 type  1   force =     0.03495289   -0.08659870   -0.01640418
     atom    5 type  1   force =    -0.03039218   -0.07912387   -0.00574307
     atom    6 type  1   force =    -0.05308033    0.02908702    0.04259730
     atom    7 type  1   force =    -0.02182642   -0.00958876    0.09625799
     atom    8 type  1   force =     0.07138847   -0.07645525   -0.01233665
     atom    9 type  1   force =     0.06232293    0.04450742    0.03732025
     atom   10 type  1   force =     0.00155111   -0.01527142   -0.09323997
     atom   11 type  1   force =     0.09073108   -0.03940796   -0.00357838
     atom   12 type  1   force =    -0.02582764   -0.02589564    0.06452651
     atom   13 type  1   force =    -0.08884549   -0.00411109   -0.05338506
     atom   14 type  1   force =     0.06615621   -0.03585019   -0.05972039
     atom   15 type  1   force =    -0.04556313   -0.06623568    0.06412132
     atom   16 type  1   force =     0.02813133   -0.05209111   -0.09301119
     atom   17 type  1   force =    -0.06337619    0.00041113   -0.06996801
     atom   18 type  1   force =    -0.03990930    0.01446165    0.07591319
     atom   19 type  1   force =    -0.03314989    0.05716542   -0.08976879
     atom   20 type  1   force =    -0.00088136    0.05376278    0.07803863
     atom   21 type  1   force =     0.05981753    0.06904530    0.03707872
     atom   22 type  1   force =    -0.09204194    0.04342887    0.02675432
     atom   23 type  1   force =     0.01252101   -0.03414464   -0.06420188
     atom   24 type  1   force =     0.04235478    0.06740252    0.00358674
     atom   25 type  1   force =     0.02520371   -0.01614142   -0.07943154
     atom   26 type  1   force =    -0.06120989    0.06270493   -0.01165699
     atom   27 type  1   force =     0.03069065    0.02853189   -0.08876925
     atom   28 type  1   force =     0.06319919   -0.04633477    0.04259934
     atom   29 type  1   force =     0.06841618    0.03700907    0.02940528
     atom   30 type  1   force =    -0.04979111    0.06359275    0.01787311
     atom   31 type  1   force =    -0.03540140   -0.02138256    0.08425019
     atom   32 type  1   force =     0.09091727    0.06198240    0.03110739
     atom   33 type  1   force =    -0.05813450    0.05504702   -0.03095794
     atom   34 type  1   force =     0.01111522   -0.07330660   -0.06264946
     atom   35 type  1   force =     0.06777657   -0.05188351   -0.03423046
     atom   36 type  1   force =    -0.06328501    0.01371764   -0.07042853
     atom   37 type  1   force =    -0.03776834    0.00333787   -0.07804668
     atom   38 type  1   force =    -0.07923666    0.03583278    0.05664694
     atom   39 type  1   force =    -0.07006989   -0.06928396    0.00661933
     atom   40 type  1   force =    -0.02832073    0.07827119    0.07149933
     atom   41 type  1   force =    -0.03341118   -0.04458624   -0.05522125
     atom   42 type  1   force =     0.00164443   -0.04827938    0.07151433
     atom   43 type  1   force =     0.07612490    0.05141100   -0.01847300
     atom   44 type  1   force =     0.02126381   -0.07083883    0.05845007
     atom   45 type  2   force =    -1.08007468   -0.38801287   -1.30213226
     atom   46 type  2   force =    -1.28371007    0.79391290   -1.21293925
     atom   47 type  2   force =     1.89428200    0.96276864   -0.54088739
     atom   48 type  2   force =    -0.72259430    1.32099804   -1.16146952
     atom   49 type  2   force =    -1.22952359   -0.52655410    1.19501443
     atom   50 type  2   force =    -1.15208829    1.11232899   -1.38465482
     atom   51 type  2   force =     0.45745821    0.73401823    1.77360775
     atom   52 type  2   force =     0.32584075    2.02498533    0.28420962
     atom   53 type  2   force =     1.92889735   -0.27984910   -0.20024214
     atom   54 type  2   force =     0.48137603   -1.97147426   -0.11036027
     atom   55 type  2   force =     0.43472097   -1.73960780   -0.92677783
     atom   56 type  2   force =    -1.24577661   -0.79562705    1.27207926
     atom   57 type  2   force =     0.43288410   -0.64047011    1.50247949
     atom   58 type  2   force =    -1.77509874    0.14819834    0.87210169
     atom   59 type  2   force =    -0.38014322   -1.70538116   -0.65552816
     atom   60 type  2   force =    -0.80161188   -0.68019544   -1.85627326
     atom   61 type  2   force =     0.89527464    0.38549252    1.73881493
     atom   62 type  2   force =    -0.09773433    0.63821389    1.65374836
     atom   63 type  2   force =     2.09841859   -0.46566581    0.38493696
     atom   64 type  2   force =     1.66672800    0.00209634   -1.00977529
     atom   65 type  2   force =     0.45192440    1.74055373   -0.27440722
     atom   66 type  2   force =    -1.60882002    0.22437483   -0.67941380
     The ionic contribution  to forces
     atom    1 type  1   force =    -3.78344203   -1.89560113    1.19958040
     atom    2 type  1   force =    -2.02968717    2.20416297   -0.44480213
     atom    3 type  1   force =    -0.12081038   -3.14089747   -3.81098389
     atom    4 type  1   force =    -0.26310840    1.43048721   -0.38131805
     atom    5 type  1   force =    -1.07728571    4.60824080   -0.03054981
     atom    6 type  1   force =    -0.47417877    0.47300429   -2.37011879
     atom    7 type  1   force =     2.01189634   -0.02513748   -1.64332888
     atom    8 type  1   force =    -1.13679891    1.90606385    2.16225659
     atom    9 type  1   force =    -2.57620637   -0.21735996    1.33156973
     atom   10 type  1   force =    -0.42629600    1.69712884    5.25635206
     atom   11 type  1   force =    -2.85099716    1.34642337    2.47517740
     atom   12 type  1   force =     1.75707288    1.61197698    0.12018343
     atom   13 type  1   force =     4.66548029   -0.52653169    2.18378871
     atom   14 type  1   force =    -0.31547133   -0.01143685    2.14000005
     atom   15 type  1   force =     1.96809520    3.58433941   -3.71855391
     atom   16 type  1   force =    -0.56745837    3.58588842    0.78426699
     atom   17 type  1   force =     1.58117057   -1.70332377    4.15986987
     atom   18 type  1   force =     1.18655069   -2.74219228   -1.18259824
     atom   19 type  1   force =     0.76705662   -2.47954916    0.30580083
     atom   20 type  1   force =    -0.30676327   -2.68169583   -4.84348647
     atom   21 type  1   force =    -0.31254600   -1.40022290   -1.33314852
     atom   22 type  1   force =     5.08148842    0.02283263   -1.18955767
     atom   23 type  1   force =    -1.36556977   -1.51639610    1.28414598
     atom   24 type  1   force =    -2.41229938   -4.61606165   -0.85559783
     atom   25 type  1   force =     0.10986188    2.61866043    3.40518667
     atom   26 type  1   force =     3.07190831    0.22833680    0.47390284
     atom   27 type  1   force =    -0.44992291   -1.57554926    4.72730687
     atom   28 type  1   force =    -0.89159332    0.98467273    0.90643928
     atom   29 type  1   force =    -0.11532263   -1.43625662   -2.18514614
     atom   30 type  1   force =     3.23598803   -1.84367781   -1.80384914
     atom   31 type  1   force =    -1.54420302    0.27138247   -2.39440058
     atom   32 type  1   force =    -5.39027538   -2.60637282   -0.61093137
     atom   33 type  1   force =     2.17595571    1.34244289    1.07990142
     atom   34 type  1   force =    -0.59114873    4.86018547    2.43239962
     atom   35 type  1   force =    -3.75035514    0.11728079    2.38490437
     atom   36 type  1   force =     0.17947205   -1.79757038    3.30636582
     atom   37 type  1   force =     2.34085186   -1.31644789    1.72219011
     atom   38 type  1   force =     3.93437000   -2.25532858   -2.92644647
     atom   39 type  1   force =     0.69239426    2.08784102   -2.32081859
     atom   40 type  1   force =    -1.16791571   -2.26731866   -3.82539215
     atom   41 type  1   force =     1.32941270    2.36765981    0.54455570
     atom   42 type  1   force =    -0.28177718    1.92512286   -4.61424383
     atom   43 type  1   force =    -2.62339316   -1.80412073    0.21103742
     atom   44 type  1   force =     0.13984931    1.86978189   -3.15207253
     atom   45 type  2   force =    -7.92273667    3.45675206   12.20486899
     atom   46 type  2   force =     5.36988922  -11.87423598   -5.28265410
     atom   47 type  2   force =   -16.77682606    8.33664425   -2.26936904
     atom   48 type  2   force =     6.61696269   -4.49233446   10.80239315
     atom   49 type  2   force =     0.17166844    9.67816761   11.76638205
     atom   50 type  2   force =     4.22207792    1.13450777   16.20145144
     atom   51 type  2   force =    10.14769208   -7.06107481   -0.52237599
     atom   52 type  2   force =     2.06962433    6.28831308  -12.92621876
     atom   53 type  2   force =    -5.40020226  -10.14291808   10.84516973
     atom   54 type  2   force =    -2.83570396   -1.73831624  -15.10558389
     atom   55 type  2   force =    11.41542513    9.48715467    0.59700575
     atom   56 type  2   force =    -2.05854044  -13.42208809   -8.13357985
     atom   57 type  2   force =     6.31644465   11.77943983   -0.35608207
     atom   58 type  2   force =     8.30883644   -3.07796220    9.99216633
     atom   59 type  2   force =    12.62474222    4.24537471   -4.88309028
     atom   60 type  2   force =   -14.16311960   -2.40041906    6.92809959
     atom   61 type  2   force =    -2.98087329   15.76467419   -2.33671022
     atom   62 type  2   force =    -9.47689654  -10.05471789    2.33338508
     atom   63 type  2   force =     4.77543835   -7.84691631   -6.19901769
     atom   64 type  2   force =   -14.01605571   -0.18312642   -8.36894739
     atom   65 type  2   force =    -0.15436508    1.70152534  -10.40524910
     atom   66 type  2   force =     4.34246921   -0.86331088   -3.84188089
     The local contribution  to forces
     atom    1 type  1   force =     3.71539849    1.80235585   -1.20390026
     atom    2 type  1   force =     2.02500974   -2.17878322    0.42979825
     atom    3 type  1   force =     0.11445287    3.16325410    3.83112906
     atom    4 type  1   force =     0.21432763   -1.37383099    0.35216080
     atom    5 type  1   force =     1.06775001   -4.60365089    0.03901210
     atom    6 type  1   force =     0.46608249   -0.48783711    2.37316383
     atom    7 type  1   force =    -1.96450194    0.01963842    1.52611454
     atom    8 type  1   force =     1.06033942   -1.82541790   -2.12188013
     atom    9 type  1   force =     2.52214271    0.18524433   -1.33706286
     atom   10 type  1   force =     0.41181598   -1.70002677   -5.23695210
     atom   11 type  1   force =     2.79257135   -1.32402532   -2.46500334
     atom   12 type  1   force =    -1.74870158   -1.61308957   -0.10488212
     atom   13 type  1   force =    -4.59691923    0.53004010   -2.15147714
     atom   14 type  1   force =     0.26031039    0.03727478   -2.07159342
     atom   15 type  1   force =    -1.93936941   -3.54164526    3.67541186
     atom   16 type  1   force =     0.53605920   -3.50854735   -0.67175100
     atom   17 type  1   force =    -1.55494043    1.70838357   -4.14659804
     atom   18 type  1   force =    -1.16184508    2.73746522    1.17252742
     atom   19 type  1   force =    -0.73719654    2.38064563   -0.21292669
     atom   20 type  1   force =     0.30744394    2.66132306    4.82880085
     atom   21 type  1   force =     0.23919021    1.35511461    1.30072454
     atom   22 type  1   force =    -4.98424915   -0.04854630    1.17072539
     atom   23 type  1   force =     1.34535353    1.51200048   -1.27987685
     atom   24 type  1   force =     2.43434858    4.65417532    0.85974363
     atom   25 type  1   force =    -0.13115124   -2.63026647   -3.37675565
     atom   26 type  1   force =    -3.02446033   -0.25570962   -0.48340613
     atom   27 type  1   force =     0.43334626    1.55950132   -4.68807886
     atom   28 type  1   force =     0.84724687   -0.95288920   -0.93952519
     atom   29 type  1   force =     0.07916832    1.41960228    2.16849613
     atom   30 type  1   force =    -3.19564365    1.82481549    1.81311294
     atom   31 type  1   force =     1.58860405   -0.25233570    2.32226019
     atom   32 type  1   force =     5.26961938    2.53286187    0.58863886
     atom   33 type  1   force =    -2.14353147   -1.36728017   -1.06648111
     atom   34 type  1   force =     0.58713286   -4.82742628   -2.40882825
     atom   35 type  1   force =     3.71608164   -0.09038338   -2.39040098
     atom   36 type  1   force =    -0.12651170    1.78408088   -3.24199240
     atom   37 type  1   force =    -2.32730713    1.32115014   -1.67938315
     atom   38 type  1   force =    -3.87763329    2.22867551    2.86577654
     atom   39 type  1   force =    -0.65506226   -2.04227725    2.32257293
     atom   40 type  1   force =     1.20542272    2.16140322    3.73210123
     atom   41 type  1   force =    -1.31593101   -2.38035473   -0.53081018
     atom   42 type  1   force =     0.30508433   -1.90996804    4.60288561
     atom   43 type  1   force =     2.58239636    1.78948246   -0.19534236
     atom   44 type  1   force =    -0.15774048   -1.82770049    3.11883825
     atom   45 type  2   force =     8.99225436   -3.04209234  -10.94737079
     atom   46 type  2   force =    -4.15654887   11.03872796    6.42768778
     atom   47 type  2   force =    14.98957966   -9.21007036    2.74822740
     atom   48 type  2   force =    -5.92598666    3.19673709   -9.64414232
     atom   49 type  2   force =     1.04634327   -9.15602779  -12.91985140
     atom   50 type  2   force =    -3.09539911   -2.20016560  -14.88672109
     atom   51 type  2   force =   -10.58878148    6.33505597   -1.22521420
     atom   52 type  2   force =    -2.37586149   -8.28704673   12.59848009
     atom   53 type  2   force =     3.55075792   10.39924929  -10.66443452
     atom   54 type  2   force =     2.36089772    3.68930650   15.12749701
     atom   55 type  2   force =   -11.83176328   -7.82139087    0.27449681
     atom   56 type  2   force =     3.23711525   14.13844567    6.93145742
     atom   57 type  2   force =    -6.74755999  -11.14995181   -1.05826494
     atom   58 type  2   force =    -6.59199417    2.94242648  -10.81613168
     atom   59 type  2   force =   -12.23663027   -2.59730732    5.50358579
     atom   60 type  2   force =    14.97990941    3.07177350   -5.11486994
     atom   61 type  2   force =     2.10824549  -16.12689451    0.66282724
     atom   62 type  2   force =     9.55439205    9.46262543   -3.92117919
     atom   63 type  2   force =    -6.79397274    8.28438655    5.85462686
     atom   64 type  2   force =    12.37501051    0.24195683    9.39152757
     atom   65 type  2   force =    -0.26843596   -3.33976069   10.65875309
     atom   66 type  2   force =    -2.78187703    0.63328460    4.50953055
     The core correction contribution to forces
     atom    1 type  1   force =     0.00000000    0.00000000    0.00000000
     atom    2 type  1   force =     0.00000000    0.00000000    0.00000000
     atom    3 type  1   force =     0.00000000    0.00000000    0.00000000
     atom    4 type  1   force =     0.00000000    0.00000000    0.00000000
     atom    5 type  1   force =     0.00000000    0.00000000    0.00000000
     atom    6 type  1   force =     0.00000000    0.00000000    0.00000000
     atom    7 type  1   force =     0.00000000    0.00000000    0.00000000
     atom    8 type  1   force =     0.00000000    0.00000000    0.00000000
     atom    9 type  1   force =     0.00000000    0.00000000    0.00000000
     atom   10 type  1   force =     0.00000000    0.00000000    0.00000000
     atom   11 type  1   force =     0.00000000    0.00000000    0.00000000
     atom   12 type  1   force =     0.00000000    0.00000000    0.00000000
     atom   13 type  1   force =     0.00000000    0.00000000    0.00000000
     atom   14 type  1   force =     0.00000000    0.00000000    0.00000000
     atom   15 type  1   force =     0.00000000    0.00000000    0.00000000
     atom   16 type  1   force =     0.00000000    0.00000000    0.00000000
     atom   17 type  1   force =     0.00000000    0.00000000    0.00000000
     atom   18 type  1   force =     0.00000000    0.00000000    0.00000000
     atom   19 type  1   force =     0.00000000    0.00000000    0.00000000
     atom   20 type  1   force =     0.00000000    0.00000000    0.00000000
     atom   21 type  1   force =     0.00000000    0.00000000    0.00000000
     atom   22 type  1   force =     0.00000000    0.00000000    0.00000000
     atom   23 type  1   force =     0.00000000    0.00000000    0.00000000
     atom   24 type  1   force =     0.00000000    0.00000000    0.00000000
     atom   25 type  1   force =     0.00000000    0.00000000    0.00000000
     atom   26 type  1   force =     0.00000000    0.00000000    0.00000000
     atom   27 type  1   force =     0.00000000    0.00000000    0.00000000
     atom   28 type  1   force =     0.00000000    0.00000000    0.00000000
     atom   29 type  1   force =     0.00000000    0.00000000    0.00000000
     atom   30 type  1   force =     0.00000000    0.00000000    0.00000000
     atom   31 type  1   force =     0.00000000    0.00000000    0.00000000
     atom   32 type  1   force =     0.00000000    0.00000000    0.00000000
     atom   33 type  1   force =     0.00000000    0.00000000    0.00000000
     atom   34 type  1   force =     0.00000000    0.00000000    0.00000000
     atom   35 type  1   force =     0.00000000    0.00000000    0.00000000
     atom   36 type  1   force =     0.00000000    0.00000000    0.00000000
     atom   37 type  1   force =     0.00000000    0.00000000    0.00000000
     atom   38 type  1   force =     0.00000000    0.00000000    0.00000000
     atom   39 type  1   force =     0.00000000    0.00000000    0.00000000
     atom   40 type  1   force =     0.00000000    0.00000000    0.00000000
     atom   41 type  1   force =     0.00000000    0.00000000    0.00000000
     atom   42 type  1   force =     0.00000000    0.00000000    0.00000000
     atom   43 type  1   force =     0.00000000    0.00000000    0.00000000
     atom   44 type  1   force =     0.00000000    0.00000000    0.00000000
     atom   45 type  2   force =     0.01102919    0.00360180    0.01200413
     atom   46 type  2   force =     0.01328478   -0.00740615    0.01353338
     atom   47 type  2   force =    -0.01831536   -0.01041709    0.00503545
     atom   48 type  2   force =     0.00592912   -0.01144251    0.01075966
     atom   49 type  2   force =     0.01251715    0.00526007   -0.01332907
     atom   50 type  2   force =     0.01153532   -0.01178468    0.01318484
     atom   51 type  2   force =    -0.00554950   -0.00722668   -0.01818834
     atom   52 type  2   force =    -0.00377076   -0.01999206   -0.00187236
     atom   53 type  2   force =    -0.01921420    0.00310461    0.00189552
     atom   54 type  2   force =    -0.00487063    0.02029890    0.00255947
     atom   55 type  2   force =    -0.00541114    0.01696695    0.00958247
     atom   56 type  2   force =     0.01316856    0.00913224   -0.01305590
     atom   57 type  2   force =    -0.00401443    0.00533160   -0.01567295
     atom   58 type  2   force =     0.01728109   -0.00142172   -0.00998429
     atom   59 type  2   force =     0.00267877    0.01514378    0.00653308
     atom   60 type  2   force =     0.00855438    0.00640928    0.01843525
     atom   61 type  2   force =    -0.00836666   -0.00490299   -0.01833351
     atom   62 type  2   force =     0.00180136   -0.00606802   -0.01687042
     atom   63 type  2   force =    -0.02135522    0.00534048   -0.00373000
     atom   64 type  2   force =    -0.01678071   -0.00016836    0.00916049
     atom   65 type  2   force =    -0.00471070   -0.01712231    0.00347817
     atom   66 type  2   force =     0.01587173   -0.00155622    0.00725858
     The Hubbard contrib.    to forces
     atom    1 type  1   force =     0.00000000    0.00000000    0.00000000
     atom    2 type  1   force =     0.00000000    0.00000000    0.00000000
     atom    3 type  1   force =     0.00000000    0.00000000    0.00000000
     atom    4 type  1   force =     0.00000000    0.00000000    0.00000000
     atom    5 type  1   force =     0.00000000    0.00000000    0.00000000
     atom    6 type  1   force =     0.00000000    0.00000000    0.00000000
     atom    7 type  1   force =     0.00000000    0.00000000    0.00000000
     atom    8 type  1   force =     0.00000000    0.00000000    0.00000000
     atom    9 type  1   force =     0.00000000    0.00000000    0.00000000
     atom   10 type  1   force =     0.00000000    0.00000000    0.00000000
     atom   11 type  1   force =     0.00000000    0.00000000    0.00000000
     atom   12 type  1   force =     0.00000000    0.00000000    0.00000000
     atom   13 type  1   force =     0.00000000    0.00000000    0.00000000
     atom   14 type  1   force =     0.00000000    0.00000000    0.00000000
     atom   15 type  1   force =     0.00000000    0.00000000    0.00000000
     atom   16 type  1   force =     0.00000000    0.00000000    0.00000000
     atom   17 type  1   force =     0.00000000    0.00000000    0.00000000
     atom   18 type  1   force =     0.00000000    0.00000000    0.00000000
     atom   19 type  1   force =     0.00000000    0.00000000    0.00000000
     atom   20 type  1   force =     0.00000000    0.00000000    0.00000000
     atom   21 type  1   force =     0.00000000    0.00000000    0.00000000
     atom   22 type  1   force =     0.00000000    0.00000000    0.00000000
     atom   23 type  1   force =     0.00000000    0.00000000    0.00000000
     atom   24 type  1   force =     0.00000000    0.00000000    0.00000000
     atom   25 type  1   force =     0.00000000    0.00000000    0.00000000
     atom   26 type  1   force =     0.00000000    0.00000000    0.00000000
     atom   27 type  1   force =     0.00000000    0.00000000    0.00000000
     atom   28 type  1   force =     0.00000000    0.00000000    0.00000000
     atom   29 type  1   force =     0.00000000    0.00000000    0.00000000
     atom   30 type  1   force =     0.00000000    0.00000000    0.00000000
     atom   31 type  1   force =     0.00000000    0.00000000    0.00000000
     atom   32 type  1   force =     0.00000000    0.00000000    0.00000000
     atom   33 type  1   force =     0.00000000    0.00000000    0.00000000
     atom   34 type  1   force =     0.00000000    0.00000000    0.00000000
     atom   35 type  1   force =     0.00000000    0.00000000    0.00000000
     atom   36 type  1   force =     0.00000000    0.00000000    0.00000000
     atom   37 type  1   force =     0.00000000    0.00000000    0.00000000
     atom   38 type  1   force =     0.00000000    0.00000000    0.00000000
     atom   39 type  1   force =     0.00000000    0.00000000    0.00000000
     atom   40 type  1   force =     0.00000000    0.00000000    0.00000000
     atom   41 type  1   force =     0.00000000    0.00000000    0.00000000
     atom   42 type  1   force =     0.00000000    0.00000000    0.00000000
     atom   43 type  1   force =     0.00000000    0.00000000    0.00000000
     atom   44 type  1   force =     0.00000000    0.00000000    0.00000000
     atom   45 type  2   force =     0.00000000    0.00000000    0.00000000
     atom   46 type  2   force =     0.00000000    0.00000000    0.00000000
     atom   47 type  2   force =     0.00000000    0.00000000    0.00000000
     atom   48 type  2   force =     0.00000000    0.00000000    0.00000000
     atom   49 type  2   force =     0.00000000    0.00000000    0.00000000
     atom   50 type  2   force =     0.00000000    0.00000000    0.00000000
     atom   51 type  2   force =     0.00000000    0.00000000    0.00000000
     atom   52 type  2   force =     0.00000000    0.00000000    0.00000000
     atom   53 type  2   force =     0.00000000    0.00000000    0.00000000
     atom   54 type  2   force =     0.00000000    0.00000000    0.00000000
     atom   55 type  2   force =     0.00000000    0.00000000    0.00000000
     atom   56 type  2   force =     0.00000000    0.00000000    0.00000000
     atom   57 type  2   force =     0.00000000    0.00000000    0.00000000
     atom   58 type  2   force =     0.00000000    0.00000000    0.00000000
     atom   59 type  2   force =     0.00000000    0.00000000    0.00000000
     atom   60 type  2   force =     0.00000000    0.00000000    0.00000000
     atom   61 type  2   force =     0.00000000    0.00000000    0.00000000
     atom   62 type  2   force =     0.00000000    0.00000000    0.00000000
     atom   63 type  2   force =     0.00000000    0.00000000    0.00000000
     atom   64 type  2   force =     0.00000000    0.00000000    0.00000000
     atom   65 type  2   force =     0.00000000    0.00000000    0.00000000
     atom   66 type  2   force =     0.00000000    0.00000000    0.00000000
     The SCF correction term to forces
     atom    1 type  1   force =     0.00001942    0.00001193    0.00001057
     atom    2 type  1   force =    -0.00000329   -0.00000370    0.00000782
     atom    3 type  1   force =     0.00000371    0.00000824    0.00002642
     atom    4 type  1   force =     0.00000226   -0.00001971   -0.00000689
     atom    5 type  1   force =    -0.00003806   -0.00004512    0.00000145
     atom    6 type  1   force =    -0.00004955   -0.00000030    0.00002297
     atom    7 type  1   force =     0.00000917   -0.00001136    0.00002302
     atom    8 type  1   force =     0.00002635   -0.00002475    0.00001103
     atom    9 type  1   force =     0.00000389    0.00000395   -0.00000628
     atom   10 type  1   force =     0.00000293   -0.00000071   -0.00002317
     atom   11 type  1   force =     0.00001867   -0.00001068    0.00000462
     atom   12 type  1   force =    -0.00000092   -0.00000034    0.00001391
     atom   13 type  1   force =    -0.00001888   -0.00000424   -0.00002109
     atom   14 type  1   force =     0.00000633   -0.00000768   -0.00002267
     atom   15 type  1   force =    -0.00001089   -0.00002667    0.00001137
     atom   16 type  1   force =     0.00000839   -0.00001878   -0.00002231
     atom   17 type  1   force =    -0.00002377    0.00000044   -0.00001449
     atom   18 type  1   force =    -0.00001357    0.00000362    0.00000842
     atom   19 type  1   force =    -0.00001173    0.00000392   -0.00000740
     atom   20 type  1   force =    -0.00000141    0.00002833    0.00003237
     atom   21 type  1   force =    -0.00000122    0.00001000   -0.00000911
     atom   22 type  1   force =    -0.00000467    0.00001001   -0.00000189
     atom   23 type  1   force =     0.00001946   -0.00001496   -0.00006145
     atom   24 type  1   force =     0.00005154    0.00007330   -0.00000399
     atom   25 type  1   force =     0.00000468   -0.00000838   -0.00002652
     atom   26 type  1   force =    -0.00001518    0.00002001   -0.00001554
     atom   27 type  1   force =     0.00000294    0.00000178   -0.00000659
     atom   28 type  1   force =    -0.00000414    0.00000356   -0.00001492
     atom   29 type  1   force =     0.00001086    0.00001318    0.00000853
     atom   30 type  1   force =    -0.00000596    0.00001470    0.00001159
     atom   31 type  1   force =    -0.00000107    0.00000184    0.00001345
     atom   32 type  1   force =     0.00002252    0.00001923    0.00001401
     atom   33 type  1   force =     0.00000722   -0.00001278   -0.00000085
     atom   34 type  1   force =     0.00000099   -0.00000324   -0.00000633
     atom   35 type  1   force =     0.00002092   -0.00001716   -0.00002417
     atom   36 type  1   force =    -0.00001076   -0.00000264   -0.00002870
     atom   37 type  1   force =    -0.00002364    0.00000111   -0.00001272
     atom   38 type  1   force =    -0.00003358    0.00000974    0.00001413
     atom   39 type  1   force =    -0.00002803   -0.00002127    0.00000415
     atom   40 type  1   force =    -0.00000755    0.00001015    0.00001783
     atom   41 type  1   force =     0.00001514   -0.00001110   -0.00000019
     atom   42 type  1   force =     0.00001264   -0.00000598    0.00000059
     atom   43 type  1   force =     0.00002217    0.00000849   -0.00000314
     atom   44 type  1   force =     0.00001378   -0.00001610    0.00001816
     atom   45 type  2   force =     0.00015361    0.00002834    0.00020276
     atom   46 type  2   force =    -0.00001449   -0.00008637    0.00002244
     atom   47 type  2   force =    -0.00033688   -0.00015220    0.00004719
     atom   48 type  2   force =     0.00011787   -0.00016035    0.00015459
     atom   49 type  2   force =     0.00005854    0.00002231   -0.00009195
     atom   50 type  2   force =     0.00006346   -0.00009586    0.00013327
     atom   51 type  2   force =    -0.00006542   -0.00005506   -0.00020007
     atom   52 type  2   force =    -0.00001131   -0.00018425   -0.00006297
     atom   53 type  2   force =    -0.00017810    0.00002690    0.00004549
     atom   54 type  2   force =    -0.00003246    0.00016617    0.00005620
     atom   55 type  2   force =     0.00002829    0.00012384   -0.00000928
     atom   56 type  2   force =     0.00015769    0.00014022   -0.00011106
     atom   57 type  2   force =    -0.00001400    0.00002734   -0.00013651
     atom   58 type  2   force =     0.00006784    0.00001334   -0.00009192
     atom   59 type  2   force =     0.00008660    0.00023728    0.00007499
     atom   60 type  2   force =     0.00009648    0.00008848    0.00016432
     atom   61 type  2   force =    -0.00001574   -0.00002035   -0.00009519
     atom   62 type  2   force =     0.00002459   -0.00005982   -0.00018530
     atom   63 type  2   force =    -0.00026596    0.00004870    0.00003426
     atom   64 type  2   force =    -0.00016261   -0.00003875    0.00009861
     atom   65 type  2   force =     0.00007578   -0.00010103   -0.00001932
     atom   66 type  2   force =     0.00013031   -0.00000249    0.00004953

     Total force =     0.487027     Total SCF correction =     0.000964


     Computing stress (Cartesian axis) and pressure


     negative rho (up, down):  5.047E-01 0.000E+00
          total   stress  (Ry/bohr**3)                   (kbar)     P=       -2.83
  -0.00001855  -0.00000052  -0.00000036           -2.73       -0.08       -0.05
  -0.00000052  -0.00001927  -0.00000055           -0.08       -2.84       -0.08
  -0.00000036  -0.00000055  -0.00001990           -0.05       -0.08       -2.93


     init_run     :      8.10s CPU      8.59s WALL (       1 calls)
     electrons    :     84.80s CPU     90.22s WALL (       1 calls)
     forces       :      5.59s CPU      5.92s WALL (       1 calls)
     stress       :     16.66s CPU     17.05s WALL (       1 calls)

     Called by init_run:
     wfcinit      :      3.09s CPU      3.27s WALL (       1 calls)
     potinit      :      1.33s CPU      1.40s WALL (       1 calls)
     hinit0       :      0.98s CPU      1.08s WALL (       1 calls)

     Called by electrons:
     c_bands      :     56.78s CPU     59.55s WALL (      10 calls)
     sum_band     :     16.13s CPU     17.32s WALL (      10 calls)
     v_of_rho     :      6.90s CPU      7.48s WALL (      11 calls)
     newd         :      3.54s CPU      4.43s WALL (      11 calls)
     PAW_pot      :      1.04s CPU      1.04s WALL (      11 calls)
     mix_rho      :      1.24s CPU      1.33s WALL (      10 calls)

     Called by c_bands:
     init_us_2    :      0.82s CPU      0.85s WALL (      21 calls)
     init_us_2:cp :      0.82s CPU      0.85s WALL (      21 calls)
     regterg      :     55.81s CPU     58.57s WALL (      10 calls)

     Called by *egterg:
     rdiaghg      :      0.21s CPU      0.21s WALL (      32 calls)
     h_psi        :     50.40s CPU     52.73s WALL (      33 calls)
     s_psi        :      1.39s CPU      1.40s WALL (      33 calls)
     g_psi        :      0.16s CPU      0.16s WALL (      22 calls)

     Called by h_psi:
     h_psi:calbec :      1.23s CPU      1.24s WALL (      33 calls)
     vloc_psi     :     47.33s CPU     49.63s WALL (      33 calls)
     add_vuspsi   :      1.37s CPU      1.38s WALL (      33 calls)

     General routines
     calbec       :      1.84s CPU      1.85s WALL (      48 calls)
     fft          :      4.06s CPU      4.69s WALL (     119 calls)
     ffts         :      0.28s CPU      0.32s WALL (      10 calls)
     fftw         :     40.82s CPU     43.39s WALL (    2910 calls)

     Parallel routines

     PWSCF        :   1m55.27s CPU   2m 1.99s WALL


   This run was terminated on:  10:34:29  27Mar2024            

=------------------------------------------------------------------------------=
   JOB DONE.
=------------------------------------------------------------------------------=
