
     Program PWSCF v.7.2 starts on 28Mar2024 at  1: 1:56 

     This program is part of the open-source Quantum ESPRESSO suite
     for quantum simulation of materials; please cite
         "P. Giannozzi et al., J. Phys.:Condens. Matter 21 395502 (2009);
         "P. Giannozzi et al., J. Phys.:Condens. Matter 29 465901 (2017);
         "P. Giannozzi et al., J. Chem. Phys. 152 154105 (2020);
          URL http://www.quantum-espresso.org", 
     in publications or presentations arising from this work. More details at
     http://www.quantum-espresso.org/quote

     Parallel version (MPI), running on    32 processors

     MPI processes distributed on     1 nodes
     175046 MiB available memory on the printing compute node when the environment starts

     Reading input from pw-wt-478.in
Warning: card &CELL ignored
Warning: card / ignored

     Current dimensions of program PWSCF are:
     Max number of different atomic species (ntypx) = 10
     Max number of k-points (npk) =  40000
     Max angular momentum in pseudopotentials (lmaxx) =  4
     file O.pbe-n-kjpaw_psl.0.1.UPF: wavefunction(s)  2P renormalized

     IMPORTANT: XC functional enforced from input :
     Exchange-correlation= PBE
                           (   1   4   3   4   0   0   0)
     Any further DFT definition will be discarded
     Please, verify this is what you really want


     gamma-point specific algorithms are used

     R & G space division:  proc/nbgrp/npool/nimage =      32
     Subspace diagonalization in iterative solution of the eigenvalue problem:
     a serial algorithm will be used


     Parallelization info
     --------------------
     sticks:   dense  smooth     PW     G-vecs:    dense   smooth      PW
     Min        1707    1707    426               301015   301015   37634
     Max        1710    1710    428               301034   301034   37648
     Sum       54693   54693  13673              9632757  9632757 1204469

     Using Slab Decomposition



     bravais-lattice index     =            0
     lattice parameter (alat)  =      75.7119  a.u.
     unit-cell volume          =  434002.3113 (a.u.)^3
     number of atoms/cell      =           66
     number of atomic types    =            2
     number of electrons       =       176.00
     number of Kohn-Sham states=           88
     kinetic-energy cutoff     =      30.0000  Ry
     charge density cutoff     =     120.0000  Ry
     scf convergence threshold =      1.0E-06
     mixing beta               =       0.5000
     number of iterations used =            8  plain     mixing
     Exchange-correlation= PBE
                           (   1   4   3   4   0   0   0)

     celldm(1)=  75.711877  celldm(2)=   0.000000  celldm(3)=   0.000000
     celldm(4)=   0.000000  celldm(5)=   0.000000  celldm(6)=   0.000000

     crystal axes: (cart. coord. in units of alat)
               a(1) = (   1.000000   0.000000   0.000000 )  
               a(2) = (   0.000000   1.000000   0.000000 )  
               a(3) = (   0.000000   0.000000   1.000000 )  

     reciprocal axes: (cart. coord. in units 2 pi/alat)
               b(1) = (  1.000000  0.000000  0.000000 )  
               b(2) = (  0.000000  1.000000  0.000000 )  
               b(3) = (  0.000000  0.000000  1.000000 )  


     PseudoPot. # 1 for H  read from file:
     /share/pfaendtnergroup/rverma7/QE_PP/H.pbe-rrkjus_psl.1.0.0.UPF
     MD5 check sum: f52b6d4d1c606e5624b1dc7b2218f220
     Pseudo is Ultrasoft, Zval =  1.0
     Generated using "atomic" code by A. Dal Corso  v.5.1
     Using radial grid of  929 points,  2 beta functions with: 
                l(1) =   0
                l(2) =   0
     Q(r) pseudized with 0 coefficients 


     PseudoPot. # 2 for O  read from file:
     /share/pfaendtnergroup/rverma7/QE_PP/O.pbe-n-kjpaw_psl.0.1.UPF
     MD5 check sum: 0234752ac141de4415c5fc33072bef88
     Pseudo is Projector augmented-wave + core cor, Zval =  6.0
     Generated using "atomic" code by A. Dal Corso  v.5.0.99 svn rev. 10869
     Shape of augmentation charge: BESSEL
     Using radial grid of 1095 points,  4 beta functions with: 
                l(1) =   0
                l(2) =   0
                l(3) =   1
                l(4) =   1
     Q(r) pseudized with 0 coefficients 


     atomic species   valence    mass     pseudopotential
        H              1.00     1.00800     H ( 1.00)
        O              6.00    15.99900     O ( 1.00)

     No symmetry found



   Cartesian axes

     site n.     atom                  positions (alat units)
         1           H   tau(   1) = (   0.2240859   0.0999376   0.4548109  )
         2           H   tau(   2) = (   0.2176214   0.1349557   0.4676900  )
         3           H   tau(   3) = (   0.2956446   0.2523399   0.4787970  )
         4           H   tau(   4) = (   0.2983402   0.2447024   0.5206040  )
         5           H   tau(   5) = (   0.3436166   0.2233371   0.2854611  )
         6           H   tau(   6) = (   0.3487583   0.2287533   0.2477474  )
         7           H   tau(   7) = (   0.2017222   0.1776613   0.4909023  )
         8           H   tau(   8) = (   0.1735180   0.1633845   0.5158867  )
         9           H   tau(   9) = (   0.3285910   0.2150505   0.4510920  )
        10           H   tau(  10) = (   0.3104954   0.2000499   0.4836890  )
        11           H   tau(  11) = (   0.4020217   0.3504805   0.3603394  )
        12           H   tau(  12) = (   0.3688506   0.3413453   0.3367777  )
        13           H   tau(  13) = (   0.3119181   0.1197804   0.3661800  )
        14           H   tau(  14) = (   0.2940971   0.1544740   0.3806814  )
        15           H   tau(  15) = (   0.1987271   0.3238987   0.3745663  )
        16           H   tau(  16) = (   0.2377137   0.3189317   0.3659304  )
        17           H   tau(  17) = (   0.2848371   0.3565706   0.3414701  )
        18           H   tau(  18) = (   0.2786472   0.3200549   0.3220766  )
        19           H   tau(  19) = (   0.3288406   0.2776987   0.4309497  )
        20           H   tau(  20) = (   0.2975914   0.2500187   0.4263322  )
        21           H   tau(  21) = (   0.3265943   0.2810683   0.2898041  )
        22           H   tau(  22) = (   0.3156870   0.2833645   0.3281168  )
        23           H   tau(  23) = (   0.3247223   0.2897042   0.3803819  )
        24           H   tau(  24) = (   0.3481592   0.3229502   0.3856733  )
        25           H   tau(  25) = (   0.3612629   0.1784101   0.4329964  )
        26           H   tau(  26) = (   0.3527518   0.1583926   0.3984026  )
        27           H   tau(  27) = (   0.3073006   0.3556221   0.3850243  )
        28           H   tau(  28) = (   0.3408461   0.3724697   0.3675777  )
        29           H   tau(  29) = (   0.2461250   0.2235867   0.4901785  )
        30           H   tau(  30) = (   0.2237115   0.2299014   0.4585049  )
        31           H   tau(  31) = (   0.3172595   0.2368901   0.3429178  )
        32           H   tau(  32) = (   0.2891052   0.2495445   0.3717459  )
        33           H   tau(  33) = (   0.3372769   0.3331836   0.3017097  )
        34           H   tau(  34) = (   0.3520529   0.3678023   0.2843130  )
        35           H   tau(  35) = (   0.2597030   0.1471858   0.4306502  )
        36           H   tau(  36) = (   0.2956945   0.1663297   0.4383127  )
        37           H   tau(  37) = (   0.2453263   0.2335704   0.4172470  )
        38           H   tau(  38) = (   0.2666167   0.1984276   0.4068888  )
        39           H   tau(  39) = (   0.3165606   0.1766629   0.3259953  )
        40           H   tau(  40) = (   0.3520030   0.1964807   0.3356296  )
        41           H   tau(  41) = (   0.1846250   0.2626732   0.4339199  )
        42           H   tau(  42) = (   0.2182204   0.2795707   0.4182953  )
        43           H   tau(  43) = (   0.3798078   0.2068389   0.3796331  )
        44           H   tau(  44) = (   0.3948084   0.2391863   0.3650318  )
        45           O   tau(  45) = (   0.2323724   0.1230750   0.4506926  )
        46           O   tau(  46) = (   0.2862598   0.2406589   0.4998378  )
        47           O   tau(  47) = (   0.3424435   0.2421565   0.2682641  )
        48           O   tau(  48) = (   0.1915138   0.1561712   0.5013104  )
        49           O   tau(  49) = (   0.3227006   0.1935605   0.4626232  )
        50           O   tau(  50) = (   0.3782354   0.3427680   0.3613877  )
        51           O   tau(  51) = (   0.3101710   0.1451891   0.3620866  )
        52           O   tau(  52) = (   0.2192687   0.3110695   0.3811556  )
        53           O   tau(  53) = (   0.2675652   0.3387745   0.3366779  )
        54           O   tau(  54) = (   0.3165855   0.2580806   0.4417821  )
        55           O   tau(  55) = (   0.3150131   0.2982154   0.3071758  )
        56           O   tau(  56) = (   0.3333583   0.3062274   0.3976039  )
        57           O   tau(  57) = (   0.3681767   0.1733184   0.4097841  )
        58           O   tau(  58) = (   0.3156371   0.3741670   0.3694496  )
        59           O   tau(  59) = (   0.2255335   0.2142768   0.4788968  )
        60           O   tau(  60) = (   0.3112193   0.2565082   0.3584675  )
        61           O   tau(  61) = (   0.3571446   0.3487583   0.3003120  )
        62           O   tau(  62) = (   0.2785723   0.1614876   0.4215650  )
        63           O   tau(  63) = (   0.2666167   0.2240859   0.4057157  )
        64           O   tau(  64) = (   0.3311868   0.1955073   0.3193061  )
        65           O   tau(  65) = (   0.2089854   0.2584051   0.4294771  )
        66           O   tau(  66) = (   0.3847248   0.2181206   0.3573942  )

     number of k points=     1
                       cart. coord. in units 2pi/alat
        k(    1) = (   0.0000000   0.0000000   0.0000000), wk =   2.0000000

     Dense  grid:  4816379 G-vectors     FFT dimensions: ( 270, 270, 270)

     Estimated max dynamical RAM per process >     612.29 MB

     Estimated total dynamical RAM >      19.13 GB

     Check: negative core charge=   -0.000006

     Initial potential from superposition of free atoms

     starting charge     175.9995, renormalised to     176.0000

     negative rho (up, down):  3.741E-01 0.000E+00
     Starting wfcs are  132 randomized atomic wfcs
     Checking if some PAW data can be deallocated... 

     total cpu time spent up to now is        8.3 secs

     Self-consistent Calculation

     iteration #  1     ecut=    30.00 Ry     beta= 0.50
     Davidson diagonalization with overlap
     ethr =  1.00E-02,  avg # of iterations =  2.0

     negative rho (up, down):  4.428E-01 0.000E+00

     total cpu time spent up to now is       16.2 secs

     total energy              =    -965.80642622 Ry
     estimated scf accuracy    <       6.87995912 Ry

     iteration #  2     ecut=    30.00 Ry     beta= 0.50
     Davidson diagonalization with overlap
     ethr =  3.91E-03,  avg # of iterations =  2.0

     negative rho (up, down):  4.630E-01 0.000E+00

     total cpu time spent up to now is       24.5 secs

     total energy              =    -967.75183342 Ry
     estimated scf accuracy    <       0.99998724 Ry

     iteration #  3     ecut=    30.00 Ry     beta= 0.50
     Davidson diagonalization with overlap
     ethr =  5.68E-04,  avg # of iterations =  2.0

     negative rho (up, down):  5.089E-01 0.000E+00

     total cpu time spent up to now is       31.8 secs

     total energy              =    -967.80273825 Ry
     estimated scf accuracy    <       0.13054006 Ry

     iteration #  4     ecut=    30.00 Ry     beta= 0.50
     Davidson diagonalization with overlap
     ethr =  7.42E-05,  avg # of iterations =  3.0

     negative rho (up, down):  5.081E-01 0.000E+00

     total cpu time spent up to now is       40.6 secs

     total energy              =    -967.82670711 Ry
     estimated scf accuracy    <       0.04347497 Ry

     iteration #  5     ecut=    30.00 Ry     beta= 0.50
     Davidson diagonalization with overlap
     ethr =  2.47E-05,  avg # of iterations =  2.0

     negative rho (up, down):  5.071E-01 0.000E+00

     total cpu time spent up to now is       47.4 secs

     total energy              =    -967.82752830 Ry
     estimated scf accuracy    <       0.00789791 Ry

     iteration #  6     ecut=    30.00 Ry     beta= 0.50
     Davidson diagonalization with overlap
     ethr =  4.49E-06,  avg # of iterations =  2.0

     negative rho (up, down):  5.062E-01 0.000E+00

     total cpu time spent up to now is       54.3 secs

     total energy              =    -967.82752093 Ry
     estimated scf accuracy    <       0.00186928 Ry

     iteration #  7     ecut=    30.00 Ry     beta= 0.50
     Davidson diagonalization with overlap
     ethr =  1.06E-06,  avg # of iterations =  2.0

     negative rho (up, down):  5.059E-01 0.000E+00

     total cpu time spent up to now is       62.2 secs

     total energy              =    -967.82784790 Ry
     estimated scf accuracy    <       0.00009329 Ry

     iteration #  8     ecut=    30.00 Ry     beta= 0.50
     Davidson diagonalization with overlap
     ethr =  5.30E-08,  avg # of iterations =  3.0

     negative rho (up, down):  5.059E-01 0.000E+00

     total cpu time spent up to now is       70.7 secs

     total energy              =    -967.82788568 Ry
     estimated scf accuracy    <       0.00002272 Ry

     iteration #  9     ecut=    30.00 Ry     beta= 0.50
     Davidson diagonalization with overlap
     ethr =  1.29E-08,  avg # of iterations =  2.0

     negative rho (up, down):  5.060E-01 0.000E+00

     total cpu time spent up to now is       77.5 secs

     total energy              =    -967.82788206 Ry
     estimated scf accuracy    <       0.00001288 Ry

     iteration # 10     ecut=    30.00 Ry     beta= 0.50
     Davidson diagonalization with overlap
     ethr =  7.32E-09,  avg # of iterations =  2.0

     negative rho (up, down):  5.060E-01 0.000E+00

     total cpu time spent up to now is       85.1 secs

     total energy              =    -967.82788302 Ry
     estimated scf accuracy    <       0.00000107 Ry

     iteration # 11     ecut=    30.00 Ry     beta= 0.50
     Davidson diagonalization with overlap
     ethr =  6.09E-10,  avg # of iterations =  3.0

     negative rho (up, down):  5.060E-01 0.000E+00

     total cpu time spent up to now is       93.3 secs

     End of self-consistent calculation

          k = 0.0000 0.0000 0.0000 (602235 PWs)   bands (ev):

   -25.7816 -25.6767 -25.5342 -25.3985 -25.3486 -25.2570 -25.2231 -25.0567
   -24.9514 -24.9081 -24.8853 -24.8198 -24.8101 -24.7865 -24.7159 -24.6221
   -24.5549 -24.4467 -24.3491 -24.2792 -24.1695 -23.7253 -13.8483 -13.7577
   -13.6288 -13.5752 -13.5005 -13.3385 -13.1549 -13.1255 -13.0550 -13.0085
   -12.8316 -12.7821 -12.7144 -12.5863 -12.5293 -12.5172 -12.4300 -12.3664
   -12.2128 -12.1953 -12.0262 -11.5667 -10.9398 -10.6943 -10.6094 -10.5219
   -10.2405 -10.1344  -9.8323  -9.7205  -9.6827  -9.5724  -9.4911  -9.1654
    -9.1253  -8.9842  -8.9301  -8.8269  -8.7754  -8.6779  -8.5131  -8.4163
    -8.1684  -7.9979  -7.8894  -7.8064  -7.6373  -7.6119  -7.5716  -7.5035
    -7.5000  -7.4353  -7.3765  -7.2582  -7.2349  -7.2101  -7.1749  -7.0756
    -7.0002  -6.9776  -6.9617  -6.9559  -6.8172  -6.6745  -6.6105  -6.2803

     highest occupied level (ev):    -6.2803

!    total energy              =    -967.82788330 Ry
     estimated scf accuracy    <       0.00000002 Ry

     The total energy is the sum of the following terms:
     one-electron contribution =   -5695.76035175 Ry
     hartree contribution      =    2882.78119464 Ry
     xc contribution           =    -193.60240904 Ry
     ewald contribution        =    2248.04809940 Ry
     one-center paw contrib.   =    -209.29441655 Ry

     convergence has been achieved in  11 iterations

     negative rho (up, down):  5.060E-01 0.000E+00

     Forces acting on atoms (cartesian axes, Ry/au):

     atom    1 type  1   force =     0.02325947    0.02205149   -0.01942693
     atom    2 type  1   force =     0.02347712   -0.00764707   -0.02474195
     atom    3 type  1   force =     0.01448932   -0.00458041    0.04602320
     atom    4 type  1   force =     0.00795064    0.01846061   -0.01414914
     atom    5 type  1   force =    -0.01701990    0.03033206   -0.01491105
     atom    6 type  1   force =    -0.01554969    0.04466984    0.03502194
     atom    7 type  1   force =    -0.02259446   -0.03043367    0.03580880
     atom    8 type  1   force =    -0.00538942    0.00544853    0.00084413
     atom    9 type  1   force =    -0.02087341   -0.00091258    0.01887347
     atom   10 type  1   force =     0.01786129    0.00689091   -0.03751759
     atom   11 type  1   force =    -0.04441083   -0.01557834   -0.00484693
     atom   12 type  1   force =     0.04427784    0.02802800    0.04243633
     atom   13 type  1   force =    -0.01564155    0.08542657   -0.01003272
     atom   14 type  1   force =     0.04442465   -0.04531670   -0.03080096
     atom   15 type  1   force =     0.04602039   -0.02211920    0.00794201
     atom   16 type  1   force =    -0.00869040    0.01074989    0.00206007
     atom   17 type  1   force =    -0.00726869   -0.03073067   -0.00465383
     atom   18 type  1   force =    -0.02157278    0.07288251    0.04316887
     atom   19 type  1   force =    -0.02782542   -0.02010048   -0.00027662
     atom   20 type  1   force =     0.04164972    0.01079726    0.01867007
     atom   21 type  1   force =    -0.05233976    0.06650701    0.05386401
     atom   22 type  1   force =    -0.01424953    0.02511641   -0.01781082
     atom   23 type  1   force =     0.02714352    0.02537764    0.02035164
     atom   24 type  1   force =    -0.00292613   -0.03933846    0.01655623
     atom   25 type  1   force =    -0.01562439   -0.02018291   -0.01884973
     atom   26 type  1   force =    -0.02373944   -0.00537478    0.00723057
     atom   27 type  1   force =     0.04289535    0.04369919   -0.03547790
     atom   28 type  1   force =    -0.04367706   -0.01360774    0.01203882
     atom   29 type  1   force =    -0.02061983   -0.01631705   -0.00413073
     atom   30 type  1   force =    -0.01347902   -0.03437615    0.05522753
     atom   31 type  1   force =    -0.01512992    0.02007372    0.04105581
     atom   32 type  1   force =     0.07629643    0.00498069   -0.05218637
     atom   33 type  1   force =     0.00242544   -0.00124979   -0.01178311
     atom   34 type  1   force =     0.00714615   -0.04974506    0.04863513
     atom   35 type  1   force =     0.02896126    0.00729137    0.00409347
     atom   36 type  1   force =     0.01204790    0.01631558    0.02951884
     atom   37 type  1   force =     0.05438688   -0.04562399   -0.04909294
     atom   38 type  1   force =     0.00125057    0.03178688    0.02457466
     atom   39 type  1   force =     0.01977186    0.00042454    0.00984946
     atom   40 type  1   force =    -0.07043181   -0.00212864   -0.05427989
     atom   41 type  1   force =     0.04968816   -0.00664349   -0.01140773
     atom   42 type  1   force =    -0.03288485   -0.03103832    0.00657030
     atom   43 type  1   force =     0.00446053   -0.00223457   -0.02514305
     atom   44 type  1   force =    -0.00759987   -0.00113942   -0.01636667
     atom   45 type  2   force =    -0.05856762   -0.01493707    0.05144868
     atom   46 type  2   force =    -0.01424682   -0.00907137   -0.02675622
     atom   47 type  2   force =     0.02394937   -0.06955752   -0.01414417
     atom   48 type  2   force =     0.04234422    0.03929818   -0.04377580
     atom   49 type  2   force =     0.00816807   -0.01257622    0.01527614
     atom   50 type  2   force =     0.01309101    0.00829475   -0.03210444
     atom   51 type  2   force =    -0.02679909   -0.04784365    0.05020140
     atom   52 type  2   force =    -0.02570396    0.01326922   -0.00506099
     atom   53 type  2   force =     0.01285334   -0.04897910   -0.03706600
     atom   54 type  2   force =    -0.02212165   -0.00114988   -0.01920164
     atom   55 type  2   force =     0.05757373   -0.09388510   -0.05756257
     atom   56 type  2   force =    -0.00768005    0.00610765   -0.01614538
     atom   57 type  2   force =     0.03869732    0.02919709    0.00574618
     atom   58 type  2   force =    -0.00183895   -0.02247276    0.02865558
     atom   59 type  2   force =     0.01930990    0.03606761   -0.03136891
     atom   60 type  2   force =    -0.07222832   -0.06325166    0.01397488
     atom   61 type  2   force =    -0.01336271    0.03838323   -0.04993881
     atom   62 type  2   force =    -0.04157289   -0.02621262   -0.05107279
     atom   63 type  2   force =    -0.04961216    0.04501026    0.01510388
     atom   64 type  2   force =     0.06164748    0.02482880    0.04724156
     atom   65 type  2   force =    -0.01442669    0.05111312   -0.01466138
     atom   66 type  2   force =     0.00018014   -0.01252413    0.04868213
     The non-local contrib.  to forces
     atom    1 type  1   force =     0.03327844    0.09500410   -0.01613275
     atom    2 type  1   force =     0.05479114   -0.04536873   -0.06357632
     atom    3 type  1   force =    -0.02837494   -0.03772113    0.07236469
     atom    4 type  1   force =    -0.05194677   -0.01573819   -0.09622546
     atom    5 type  1   force =    -0.00318777    0.06777226   -0.06406277
     atom    6 type  1   force =    -0.02376179    0.04958610    0.07827964
     atom    7 type  1   force =    -0.03662330   -0.07055183    0.03602495
     atom    8 type  1   force =     0.08314067   -0.03052155   -0.06837107
     atom    9 type  1   force =    -0.02473667   -0.08405347    0.04747949
     atom   10 type  1   force =     0.04822548   -0.02301925   -0.08249289
     atom   11 type  1   force =    -0.09506280   -0.03064401    0.00142645
     atom   12 type  1   force =     0.02940313    0.00533322    0.07051257
     atom   13 type  1   force =    -0.00801582    0.08800383   -0.01181833
     atom   14 type  1   force =     0.04973666   -0.03152822   -0.05722661
     atom   15 type  1   force =     0.08215818   -0.04931481    0.02425109
     atom   16 type  1   force =    -0.07371504   -0.02917715    0.05821963
     atom   17 type  1   force =    -0.06341666   -0.06988567   -0.01955594
     atom   18 type  1   force =    -0.03274264    0.06108501    0.04714141
     atom   19 type  1   force =    -0.04601859   -0.07104026    0.03724695
     atom   20 type  1   force =     0.06552039    0.03038812    0.05096431
     atom   21 type  1   force =    -0.03194949    0.04678475    0.04934073
     atom   22 type  1   force =    -0.00093847    0.04944667   -0.07144146
     atom   23 type  1   force =     0.03278626    0.06242815    0.06121896
     atom   24 type  1   force =    -0.05651120   -0.06378557    0.04214446
     atom   25 type  1   force =     0.02586458   -0.02372937   -0.09979598
     atom   26 type  1   force =     0.06846165    0.06893746    0.05692033
     atom   27 type  1   force =     0.03377461    0.06611784   -0.05600382
     atom   28 type  1   force =    -0.09567430    0.00307419    0.00906321
     atom   29 type  1   force =    -0.07833908   -0.03458534   -0.04436584
     atom   30 type  1   force =     0.00821664   -0.05328539    0.06975884
     atom   31 type  1   force =    -0.02288661    0.06761043    0.05476832
     atom   32 type  1   force =     0.06434434    0.01915631   -0.04020147
     atom   33 type  1   force =     0.07183287    0.05964373   -0.00717346
     atom   34 type  1   force =     0.01633657   -0.07156671    0.05994942
     atom   35 type  1   force =     0.07111266    0.05309600   -0.03118031
     atom   36 type  1   force =    -0.07811728   -0.02375731   -0.07290542
     atom   37 type  1   force =     0.07011665   -0.03376259   -0.03710275
     atom   38 type  1   force =    -0.00194716    0.08712544   -0.00248405
     atom   39 type  1   force =     0.06336031    0.07982170   -0.02691642
     atom   40 type  1   force =    -0.06480848   -0.00574786   -0.04782472
     atom   41 type  1   force =     0.09652399   -0.01443997   -0.01858273
     atom   42 type  1   force =    -0.03529024   -0.07523003    0.04135666
     atom   43 type  1   force =     0.01899058    0.04427912   -0.08176156
     atom   44 type  1   force =    -0.04460088   -0.09209638   -0.03140724
     atom   45 type  2   force =    -1.45704744   -0.81491553    1.30499078
     atom   46 type  2   force =     1.52737321    0.99253810    0.30475559
     atom   47 type  2   force =     0.52208544   -2.05810144   -0.32780083
     atom   48 type  2   force =    -0.75434435    1.90559319    0.34635927
     atom   49 type  2   force =    -0.42236214    1.73761089    0.59689426
     atom   50 type  2   force =     1.11759564    0.49969182   -1.39342148
     atom   51 type  2   force =    -0.87982977   -1.22473777    1.41810248
     atom   52 type  2   force =    -0.32512381    1.40565657   -1.37281327
     atom   53 type  2   force =     1.81085155   -0.13027981   -0.50203695
     atom   54 type  2   force =    -0.48870872    0.68409000   -1.47236655
     atom   55 type  2   force =     0.79702730   -1.65995178    0.21412176
     atom   56 type  2   force =     0.38156410   -0.01759973   -1.79793613
     atom   57 type  2   force =    -1.76230985   -0.64394313    0.80793364
     atom   58 type  2   force =     1.14366660   -1.51384544    0.89685527
     atom   59 type  2   force =     1.15063238    1.42602744   -0.54614140
     atom   60 type  2   force =    -0.98283551   -1.41070652   -0.32265112
     atom   61 type  2   force =    -1.61059820    0.49089340   -0.84930358
     atom   62 type  2   force =    -0.05695038   -0.49571755    1.44155096
     atom   63 type  2   force =    -1.27524379   -0.73987753    0.77211721
     atom   64 type  2   force =     0.22336256   -1.13470359    1.45660590
     atom   65 type  2   force =    -1.03201594    1.57516825   -0.29613630
     atom   66 type  2   force =     0.27933824    0.83003831    1.95892302
     The ionic contribution  to forces
     atom    1 type  1   force =    -1.76444259   -5.03863729    0.74720109
     atom    2 type  1   force =    -2.54019729   -0.33802381    2.28096195
     atom    3 type  1   force =     0.92784973    2.45181652    0.38738447
     atom    4 type  1   force =     2.05420269    1.10951096    5.42625863
     atom    5 type  1   force =     0.94136495   -2.56906773   -0.45367260
     atom    6 type  1   force =     1.32150398   -2.07178170   -4.75789414
     atom    7 type  1   force =    -0.64609336    1.39012259    0.22778102
     atom    8 type  1   force =    -4.01647229    0.40390096    3.34942992
     atom    9 type  1   force =     2.49095383    1.79304383    0.13396276
     atom   10 type  1   force =    -0.39252577   -0.57557311    4.78584585
     atom   11 type  1   force =     5.19681354    2.16822321    0.09366069
     atom   12 type  1   force =     1.14864960    0.87458617   -2.33991294
     atom   13 type  1   force =     0.39529176   -5.35090964   -0.38686247
     atom   14 type  1   force =    -1.96057848   -1.04505340    0.47227693
     atom   15 type  1   force =    -4.59630213    2.73636727   -1.09254061
     atom   16 type  1   force =     0.28163920    1.80286504   -1.85338575
     atom   17 type  1   force =     0.56084795    4.04732244   -0.50739808
     atom   18 type  1   force =    -0.75910077   -0.78231056   -2.97810965
     atom   19 type  1   force =     2.57362473    3.05887744    0.82394066
     atom   20 type  1   force =    -1.73154876    0.11722273   -0.62831224
     atom   21 type  1   force =     1.08238817   -0.99068096   -3.78142061
     atom   22 type  1   force =     0.04737579   -0.87308863    0.39009246
     atom   23 type  1   force =    -0.17965997   -0.58250151   -1.28236176
     atom   24 type  1   force =     2.72648811    2.77225683    0.03104730
     atom   25 type  1   force =     1.42769850   -0.66192499    3.89956879
     atom   26 type  1   force =    -0.37620397   -3.98234699   -1.34165736
     atom   27 type  1   force =    -1.45177639    0.22299714    2.88796473
     atom   28 type  1   force =     3.28460144    2.66238687    0.23494265
     atom   29 type  1   force =     0.99672238    0.99503043    3.39598716
     atom   30 type  1   force =    -1.88068612    1.50510015   -0.76046417
     atom   31 type  1   force =     0.41939103   -2.36388722   -2.68756957
     atom   32 type  1   force =    -2.97619372   -0.51145237    0.17203078
     atom   33 type  1   force =    -1.46000611   -0.05488088   -1.89002137
     atom   34 type  1   force =     0.05666927    3.99149343   -3.65770921
     atom   35 type  1   force =    -2.50421379   -3.19561036    0.78835362
     atom   36 type  1   force =     2.24784657   -1.57335416    2.88994864
     atom   37 type  1   force =    -3.43712872    0.77954426    0.75992749
     atom   38 type  1   force =    -1.44319507   -3.11257091   -0.77997682
     atom   39 type  1   force =    -2.12580761   -3.71341868   -1.28523914
     atom   40 type  1   force =     3.01537680   -1.42565542    0.03284710
     atom   41 type  1   force =    -5.40310671    1.05991257    0.96460192
     atom   42 type  1   force =    -0.65510606    3.24578410   -0.54538300
     atom   43 type  1   force =     1.78489899   -1.57695693    2.36070293
     atom   44 type  1   force =     3.84279974    2.96167110    0.78525209
     atom   45 type  2   force =    -3.10648569  -10.84390436   -0.18500851
     atom   46 type  2   force =    -1.72481265    2.70751086   15.21003103
     atom   47 type  2   force =     2.70258765    1.37688583  -13.60100670
     atom   48 type  2   force =    -7.44958102   -8.31209364    7.24941206
     atom   49 type  2   force =     8.51953276   -9.58149983   10.58345120
     atom   50 type  2   force =    11.70489607    6.94267705    3.64749528
     atom   51 type  2   force =     0.97687739  -11.81451094   -8.51440441
     atom   52 type  2   force =   -10.63021831    4.51202435    1.10938513
     atom   53 type  2   force =   -11.79494645    9.18669868   -5.75667387
     atom   54 type  2   force =     6.60674964    5.49017086   10.74480320
     atom   55 type  2   force =    -2.68996897    5.02684937  -12.84217490
     atom   56 type  2   force =     4.87335831    7.70467502    9.78040568
     atom   57 type  2   force =    14.65487077   -7.70386952    2.27083544
     atom   58 type  2   force =    -2.44294628   17.77520736    1.50617436
     atom   59 type  2   force =   -10.61057247   -2.71582735    9.95473271
     atom   60 type  2   force =     0.11212082    0.95846734   -3.89271722
     atom   61 type  2   force =     9.07661009    8.77620651   -9.97841223
     atom   62 type  2   force =    -2.85585086  -10.90916233   -1.66469497
     atom   63 type  2   force =    -5.73053446   -0.40204806   -4.38189424
     atom   64 type  2   force =     1.01177233   -6.63000113  -12.86265752
     atom   65 type  2   force =   -11.65246016    1.91354728    2.43148569
     atom   66 type  2   force =    13.92434844   -3.21835214   -6.12064733
     The local contribution  to forces
     atom    1 type  1   force =     1.75443466    4.96568401   -0.75050379
     atom    2 type  1   force =     2.50889360    0.37572979   -2.24213818
     atom    3 type  1   force =    -0.88497639   -2.41868059   -0.41373462
     atom    4 type  1   force =    -1.99429822   -1.07531955   -5.34418433
     atom    5 type  1   force =    -0.95519115    2.53161684    0.50281606
     atom    6 type  1   force =    -1.31328694    2.06685890    4.71463405
     atom    7 type  1   force =     0.66012461   -1.35001545   -0.22799979
     atom    8 type  1   force =     3.92795180   -0.36794206   -3.28022297
     atom    9 type  1   force =    -2.48708364   -1.70990974   -0.16257627
     atom   10 type  1   force =     0.36216713    0.60547259   -4.74087469
     atom   11 type  1   force =    -5.14615837   -2.15316851   -0.09993881
     atom   12 type  1   force =    -1.13376621   -0.85190063    2.31183345
     atom   13 type  1   force =    -0.40291165    5.34833150    0.38863851
     atom   14 type  1   force =     1.95527666    1.03125289   -0.44586473
     atom   15 type  1   force =     4.56016232   -2.70917577    1.07622353
     atom   16 type  1   force =    -0.21659994   -1.76294129    1.79721184
     atom   17 type  1   force =    -0.50469808   -4.00817899    0.52229364
     atom   18 type  1   force =     0.77027325    0.79410390    2.97413438
     atom   19 type  1   force =    -2.55542604   -3.00794713   -0.86147056
     atom   20 type  1   force =     1.70768823   -0.13682002    0.59601323
     atom   21 type  1   force =    -1.10277000    1.01039135    3.78593516
     atom   22 type  1   force =    -0.06067971    0.84874699   -0.33646541
     atom   23 type  1   force =     0.17402868    0.54544576    1.24149576
     atom   24 type  1   force =    -2.67289888   -2.74782492   -0.05663581
     atom   25 type  1   force =    -1.46918055    0.66546018   -3.81863061
     atom   26 type  1   force =     0.28401061    3.90802601    1.29195998
     atom   27 type  1   force =     1.46090584   -0.24542411   -2.86744479
     atom   28 type  1   force =    -3.23259838   -2.67907823   -0.23197133
     atom   29 type  1   force =    -0.93899615   -0.97677004   -3.35575671
     atom   30 type  1   force =     1.85899544   -1.48619707    0.74592306
     atom   31 type  1   force =    -0.41162878    2.31634155    2.67385374
     atom   32 type  1   force =     2.98815467    0.49726735   -0.18402189
     atom   33 type  1   force =     1.39060458   -0.00602303    1.88540662
     atom   34 type  1   force =    -0.06585205   -3.96968029    3.64638974
     atom   35 type  1   force =     2.46206716    3.14979350   -0.75308353
     atom   36 type  1   force =    -2.15767908    1.61341529   -2.78753017
     atom   37 type  1   force =     3.42140413   -0.79141612   -0.77192451
     atom   38 type  1   force =     1.44639640    3.05722496    0.80703034
     atom   39 type  1   force =     2.08223023    3.63401228    1.32200006
     atom   40 type  1   force =    -3.02100146    1.42925850   -0.03931204
     atom   41 type  1   force =     5.35628279   -1.05212680   -0.95743379
     atom   42 type  1   force =     0.65751485   -3.20160670    0.51059432
     atom   43 type  1   force =    -1.79942406    1.53042881   -2.30408275
     atom   44 type  1   force =    -3.80578893   -2.87071715   -0.77021524
     atom   45 type  2   force =     4.49059929   11.63475289   -1.05563408
     atom   46 type  2   force =     0.19866885   -3.69836315  -15.53778851
     atom   47 type  2   force =    -3.19530032    0.59028637   13.91085990
     atom   48 type  2   force =     8.23842455    6.46441617   -7.63619047
     atom   49 type  2   force =    -8.09290984    7.84798555  -11.15873743
     atom   50 type  2   force =   -12.79753049   -7.42877634   -2.30011366
     atom   51 type  2   force =    -0.13278833   12.97781778    7.16092958
     atom   52 type  2   force =    10.92512300   -5.88966336    0.24468453
     atom   53 type  2   force =    10.01531398   -9.10761390    6.21659131
     atom   54 type  2   force =    -6.14510752   -6.16787910   -9.30649223
     atom   55 type  2   force =     1.95879949   -3.47763163   12.57144149
     atom   56 type  2   force =    -5.25854077   -7.68040699   -8.01633266
     atom   57 type  2   force =   -12.87150698    8.37078258   -3.06439892
     atom   58 type  2   force =     1.30891170  -16.29915708   -2.36475190
     atom   59 type  2   force =     9.49023509    1.34058914   -9.44575886
     atom   60 type  2   force =     0.78820807    0.37382163    4.22589612
     atom   61 type  2   force =    -7.49544450   -9.22284393   10.76817722
     atom   62 type  2   force =     2.86981407   11.37371002    0.18627484
     atom   63 type  2   force =     6.94275346    1.17985777    3.63256440
     atom   64 type  2   force =    -1.17084159    7.77853765   11.46757933
     atom   65 type  2   force =    12.65897767   -3.42162083   -2.15273878
     atom   66 type  2   force =   -14.19971257    2.38419013    4.22964979
     The core correction contribution to forces
     atom    1 type  1   force =     0.00000000    0.00000000    0.00000000
     atom    2 type  1   force =     0.00000000    0.00000000    0.00000000
     atom    3 type  1   force =     0.00000000    0.00000000    0.00000000
     atom    4 type  1   force =     0.00000000    0.00000000    0.00000000
     atom    5 type  1   force =     0.00000000    0.00000000    0.00000000
     atom    6 type  1   force =     0.00000000    0.00000000    0.00000000
     atom    7 type  1   force =     0.00000000    0.00000000    0.00000000
     atom    8 type  1   force =     0.00000000    0.00000000    0.00000000
     atom    9 type  1   force =     0.00000000    0.00000000    0.00000000
     atom   10 type  1   force =     0.00000000    0.00000000    0.00000000
     atom   11 type  1   force =     0.00000000    0.00000000    0.00000000
     atom   12 type  1   force =     0.00000000    0.00000000    0.00000000
     atom   13 type  1   force =     0.00000000    0.00000000    0.00000000
     atom   14 type  1   force =     0.00000000    0.00000000    0.00000000
     atom   15 type  1   force =     0.00000000    0.00000000    0.00000000
     atom   16 type  1   force =     0.00000000    0.00000000    0.00000000
     atom   17 type  1   force =     0.00000000    0.00000000    0.00000000
     atom   18 type  1   force =     0.00000000    0.00000000    0.00000000
     atom   19 type  1   force =     0.00000000    0.00000000    0.00000000
     atom   20 type  1   force =     0.00000000    0.00000000    0.00000000
     atom   21 type  1   force =     0.00000000    0.00000000    0.00000000
     atom   22 type  1   force =     0.00000000    0.00000000    0.00000000
     atom   23 type  1   force =     0.00000000    0.00000000    0.00000000
     atom   24 type  1   force =     0.00000000    0.00000000    0.00000000
     atom   25 type  1   force =     0.00000000    0.00000000    0.00000000
     atom   26 type  1   force =     0.00000000    0.00000000    0.00000000
     atom   27 type  1   force =     0.00000000    0.00000000    0.00000000
     atom   28 type  1   force =     0.00000000    0.00000000    0.00000000
     atom   29 type  1   force =     0.00000000    0.00000000    0.00000000
     atom   30 type  1   force =     0.00000000    0.00000000    0.00000000
     atom   31 type  1   force =     0.00000000    0.00000000    0.00000000
     atom   32 type  1   force =     0.00000000    0.00000000    0.00000000
     atom   33 type  1   force =     0.00000000    0.00000000    0.00000000
     atom   34 type  1   force =     0.00000000    0.00000000    0.00000000
     atom   35 type  1   force =     0.00000000    0.00000000    0.00000000
     atom   36 type  1   force =     0.00000000    0.00000000    0.00000000
     atom   37 type  1   force =     0.00000000    0.00000000    0.00000000
     atom   38 type  1   force =     0.00000000    0.00000000    0.00000000
     atom   39 type  1   force =     0.00000000    0.00000000    0.00000000
     atom   40 type  1   force =     0.00000000    0.00000000    0.00000000
     atom   41 type  1   force =     0.00000000    0.00000000    0.00000000
     atom   42 type  1   force =     0.00000000    0.00000000    0.00000000
     atom   43 type  1   force =     0.00000000    0.00000000    0.00000000
     atom   44 type  1   force =     0.00000000    0.00000000    0.00000000
     atom   45 type  2   force =     0.01439106    0.00907189   -0.01292689
     atom   46 type  2   force =    -0.01545868   -0.01073550   -0.00372755
     atom   47 type  2   force =    -0.00540824    0.02135672    0.00375018
     atom   48 type  2   force =     0.00780307   -0.01861493   -0.00332493
     atom   49 type  2   force =     0.00392109   -0.01669196   -0.00634115
     atom   50 type  2   force =    -0.01184343   -0.00530957    0.01393240
     atom   51 type  2   force =     0.00895542    0.01358220   -0.01447057
     atom   52 type  2   force =     0.00449824   -0.01474132    0.01367074
     atom   53 type  2   force =    -0.01836054    0.00222259    0.00504338
     atom   54 type  2   force =     0.00497107   -0.00750723    0.01483518
     atom   55 type  2   force =    -0.00826680    0.01683656   -0.00096634
     atom   56 type  2   force =    -0.00402597   -0.00056751    0.01771929
     atom   57 type  2   force =     0.01764213    0.00620213   -0.00864443
     atom   58 type  2   force =    -0.01143936    0.01532260   -0.00962041
     atom   59 type  2   force =    -0.01097741   -0.01471838    0.00577927
     atom   60 type  2   force =     0.01029314    0.01516013    0.00345339
     atom   61 type  2   force =     0.01608941   -0.00586769    0.00959408
     atom   62 type  2   force =     0.00138831    0.00492823   -0.01416414
     atom   63 type  2   force =     0.01339093    0.00706311   -0.00769446
     atom   64 type  2   force =    -0.00266711    0.01090484   -0.01427503
     atom   65 type  2   force =     0.01106137   -0.01598260    0.00271998
     atom   66 type  2   force =    -0.00377591   -0.00839652   -0.01924513
     The Hubbard contrib.    to forces
     atom    1 type  1   force =     0.00000000    0.00000000    0.00000000
     atom    2 type  1   force =     0.00000000    0.00000000    0.00000000
     atom    3 type  1   force =     0.00000000    0.00000000    0.00000000
     atom    4 type  1   force =     0.00000000    0.00000000    0.00000000
     atom    5 type  1   force =     0.00000000    0.00000000    0.00000000
     atom    6 type  1   force =     0.00000000    0.00000000    0.00000000
     atom    7 type  1   force =     0.00000000    0.00000000    0.00000000
     atom    8 type  1   force =     0.00000000    0.00000000    0.00000000
     atom    9 type  1   force =     0.00000000    0.00000000    0.00000000
     atom   10 type  1   force =     0.00000000    0.00000000    0.00000000
     atom   11 type  1   force =     0.00000000    0.00000000    0.00000000
     atom   12 type  1   force =     0.00000000    0.00000000    0.00000000
     atom   13 type  1   force =     0.00000000    0.00000000    0.00000000
     atom   14 type  1   force =     0.00000000    0.00000000    0.00000000
     atom   15 type  1   force =     0.00000000    0.00000000    0.00000000
     atom   16 type  1   force =     0.00000000    0.00000000    0.00000000
     atom   17 type  1   force =     0.00000000    0.00000000    0.00000000
     atom   18 type  1   force =     0.00000000    0.00000000    0.00000000
     atom   19 type  1   force =     0.00000000    0.00000000    0.00000000
     atom   20 type  1   force =     0.00000000    0.00000000    0.00000000
     atom   21 type  1   force =     0.00000000    0.00000000    0.00000000
     atom   22 type  1   force =     0.00000000    0.00000000    0.00000000
     atom   23 type  1   force =     0.00000000    0.00000000    0.00000000
     atom   24 type  1   force =     0.00000000    0.00000000    0.00000000
     atom   25 type  1   force =     0.00000000    0.00000000    0.00000000
     atom   26 type  1   force =     0.00000000    0.00000000    0.00000000
     atom   27 type  1   force =     0.00000000    0.00000000    0.00000000
     atom   28 type  1   force =     0.00000000    0.00000000    0.00000000
     atom   29 type  1   force =     0.00000000    0.00000000    0.00000000
     atom   30 type  1   force =     0.00000000    0.00000000    0.00000000
     atom   31 type  1   force =     0.00000000    0.00000000    0.00000000
     atom   32 type  1   force =     0.00000000    0.00000000    0.00000000
     atom   33 type  1   force =     0.00000000    0.00000000    0.00000000
     atom   34 type  1   force =     0.00000000    0.00000000    0.00000000
     atom   35 type  1   force =     0.00000000    0.00000000    0.00000000
     atom   36 type  1   force =     0.00000000    0.00000000    0.00000000
     atom   37 type  1   force =     0.00000000    0.00000000    0.00000000
     atom   38 type  1   force =     0.00000000    0.00000000    0.00000000
     atom   39 type  1   force =     0.00000000    0.00000000    0.00000000
     atom   40 type  1   force =     0.00000000    0.00000000    0.00000000
     atom   41 type  1   force =     0.00000000    0.00000000    0.00000000
     atom   42 type  1   force =     0.00000000    0.00000000    0.00000000
     atom   43 type  1   force =     0.00000000    0.00000000    0.00000000
     atom   44 type  1   force =     0.00000000    0.00000000    0.00000000
     atom   45 type  2   force =     0.00000000    0.00000000    0.00000000
     atom   46 type  2   force =     0.00000000    0.00000000    0.00000000
     atom   47 type  2   force =     0.00000000    0.00000000    0.00000000
     atom   48 type  2   force =     0.00000000    0.00000000    0.00000000
     atom   49 type  2   force =     0.00000000    0.00000000    0.00000000
     atom   50 type  2   force =     0.00000000    0.00000000    0.00000000
     atom   51 type  2   force =     0.00000000    0.00000000    0.00000000
     atom   52 type  2   force =     0.00000000    0.00000000    0.00000000
     atom   53 type  2   force =     0.00000000    0.00000000    0.00000000
     atom   54 type  2   force =     0.00000000    0.00000000    0.00000000
     atom   55 type  2   force =     0.00000000    0.00000000    0.00000000
     atom   56 type  2   force =     0.00000000    0.00000000    0.00000000
     atom   57 type  2   force =     0.00000000    0.00000000    0.00000000
     atom   58 type  2   force =     0.00000000    0.00000000    0.00000000
     atom   59 type  2   force =     0.00000000    0.00000000    0.00000000
     atom   60 type  2   force =     0.00000000    0.00000000    0.00000000
     atom   61 type  2   force =     0.00000000    0.00000000    0.00000000
     atom   62 type  2   force =     0.00000000    0.00000000    0.00000000
     atom   63 type  2   force =     0.00000000    0.00000000    0.00000000
     atom   64 type  2   force =     0.00000000    0.00000000    0.00000000
     atom   65 type  2   force =     0.00000000    0.00000000    0.00000000
     atom   66 type  2   force =     0.00000000    0.00000000    0.00000000
     The SCF correction term to forces
     atom    1 type  1   force =    -0.00000481   -0.00000867    0.00000319
     atom    2 type  1   force =    -0.00000410    0.00000635    0.00000526
     atom    3 type  1   force =    -0.00000285   -0.00000454    0.00000334
     atom    4 type  1   force =    -0.00000083   -0.00000194   -0.00000331
     atom    5 type  1   force =     0.00000030    0.00000136    0.00000293
     atom    6 type  1   force =     0.00000127   -0.00000280   -0.00000293
     atom    7 type  1   force =     0.00000382    0.00000168   -0.00000271
     atom    8 type  1   force =    -0.00000337    0.00000185    0.00000292
     atom    9 type  1   force =    -0.00000071   -0.00000254    0.00000215
     atom   10 type  1   force =     0.00000068    0.00000135   -0.00000118
     atom   11 type  1   force =     0.00000303    0.00000164   -0.00000059
     atom   12 type  1   force =    -0.00000245   -0.00000010   -0.00000208
     atom   13 type  1   force =     0.00000039   -0.00000846    0.00000425
     atom   14 type  1   force =    -0.00000397    0.00000269    0.00000811
     atom   15 type  1   force =     0.00000825   -0.00000523    0.00000267
     atom   16 type  1   force =    -0.00000839   -0.00000604    0.00000902
     atom   17 type  1   force =     0.00000433    0.00000221    0.00000122
     atom   18 type  1   force =     0.00000361   -0.00000517   -0.00000261
     atom   19 type  1   force =     0.00000071    0.00000015    0.00000099
     atom   20 type  1   force =    -0.00000391   -0.00000291   -0.00000055
     atom   21 type  1   force =    -0.00000221    0.00000254    0.00000341
     atom   22 type  1   force =    -0.00000092    0.00000204   -0.00000174
     atom   23 type  1   force =    -0.00000522   -0.00000410   -0.00000665
     atom   24 type  1   force =     0.00000206    0.00000586   -0.00000505
     atom   25 type  1   force =    -0.00000069    0.00000194    0.00000274
     atom   26 type  1   force =    -0.00000150   -0.00000059    0.00000230
     atom   27 type  1   force =    -0.00000249   -0.00000102    0.00000066
     atom   28 type  1   force =     0.00000040    0.00000009   -0.00000103
     atom   29 type  1   force =    -0.00000075   -0.00000143   -0.00000067
     atom   30 type  1   force =     0.00000124   -0.00000317    0.00000448
     atom   31 type  1   force =     0.00000066   -0.00000037   -0.00000201
     atom   32 type  1   force =    -0.00000263    0.00000007    0.00000088
     atom   33 type  1   force =     0.00000033    0.00000106   -0.00000023
     atom   34 type  1   force =    -0.00000142   -0.00000083   -0.00000014
     atom   35 type  1   force =     0.00000146    0.00000289   -0.00000164
     atom   36 type  1   force =     0.00000392    0.00000242    0.00000046
     atom   37 type  1   force =     0.00000104    0.00000113    0.00000150
     atom   38 type  1   force =     0.00000263   -0.00000195   -0.00000014
     atom   39 type  1   force =    -0.00000484   -0.00000009   -0.00000037
     atom   40 type  1   force =     0.00000757    0.00000681    0.00000443
     atom   41 type  1   force =    -0.00000568    0.00000137    0.00000155
     atom   42 type  1   force =     0.00000284    0.00000497   -0.00000300
     atom   43 type  1   force =     0.00000125    0.00000510   -0.00000700
     atom   44 type  1   force =    -0.00000357   -0.00000632   -0.00000161
     atom   45 type  2   force =    -0.00001861    0.00004871    0.00002204
     atom   46 type  2   force =    -0.00001132   -0.00003102   -0.00003211
     atom   47 type  2   force =    -0.00000893    0.00000568    0.00004795
     atom   48 type  2   force =     0.00004820   -0.00001194   -0.00003707
     atom   49 type  2   force =    -0.00000758    0.00000979    0.00000393
     atom   50 type  2   force =    -0.00002056    0.00000246   -0.00000231
     atom   51 type  2   force =    -0.00000757   -0.00000425    0.00003900
     atom   52 type  2   force =     0.00002314   -0.00001635    0.00000655
     atom   53 type  2   force =     0.00000102   -0.00001599    0.00000481
     atom   54 type  2   force =    -0.00001990   -0.00003374    0.00001343
     atom   55 type  2   force =    -0.00001107    0.00000305    0.00001010
     atom   56 type  2   force =    -0.00002948   -0.00000247   -0.00000689
     atom   57 type  2   force =     0.00000749    0.00001570    0.00001512
     atom   58 type  2   force =    -0.00002539   -0.00000954   -0.00000707
     atom   59 type  2   force =    -0.00000147   -0.00001258    0.00001405
     atom   60 type  2   force =    -0.00000861   -0.00000358   -0.00001163
     atom   61 type  2   force =    -0.00001328   -0.00001440    0.00000038
     atom   62 type  2   force =     0.00003220    0.00001966   -0.00004481
     atom   63 type  2   force =     0.00002793    0.00000564    0.00000565
     atom   64 type  2   force =     0.00002753    0.00008169   -0.00001644
     atom   65 type  2   force =     0.00001659   -0.00000832    0.00000270
     atom   66 type  2   force =    -0.00001183   -0.00001324   -0.00000355

     Total force =     0.457216     Total SCF correction =     0.000185


     Computing stress (Cartesian axis) and pressure


     negative rho (up, down):  5.060E-01 0.000E+00
          total   stress  (Ry/bohr**3)                   (kbar)     P=       -2.91
  -0.00001982   0.00000000   0.00000070           -2.92        0.00        0.10
   0.00000000  -0.00001992  -0.00000005            0.00       -2.93       -0.01
   0.00000070  -0.00000005  -0.00001953            0.10       -0.01       -2.87


     init_run     :      7.73s CPU      8.13s WALL (       1 calls)
     electrons    :     79.97s CPU     85.07s WALL (       1 calls)
     forces       :      6.41s CPU      6.80s WALL (       1 calls)
     stress       :     16.76s CPU     17.35s WALL (       1 calls)

     Called by init_run:
     wfcinit      :      2.77s CPU      2.92s WALL (       1 calls)
     potinit      :      1.52s CPU      1.58s WALL (       1 calls)
     hinit0       :      1.03s CPU      1.10s WALL (       1 calls)

     Called by electrons:
     c_bands      :     53.58s CPU     56.08s WALL (      11 calls)
     sum_band     :     14.84s CPU     16.02s WALL (      11 calls)
     v_of_rho     :      6.93s CPU      7.47s WALL (      12 calls)
     newd         :      3.11s CPU      4.00s WALL (      12 calls)
     PAW_pot      :      1.11s CPU      1.11s WALL (      12 calls)
     mix_rho      :      1.15s CPU      1.23s WALL (      11 calls)

     Called by c_bands:
     init_us_2    :      0.74s CPU      0.76s WALL (      23 calls)
     init_us_2:cp :      0.74s CPU      0.76s WALL (      23 calls)
     regterg      :     52.59s CPU     55.09s WALL (      11 calls)

     Called by *egterg:
     rdiaghg      :      0.26s CPU      0.27s WALL (      36 calls)
     h_psi        :     46.84s CPU     48.90s WALL (      37 calls)
     s_psi        :      1.54s CPU      1.55s WALL (      37 calls)
     g_psi        :      0.15s CPU      0.15s WALL (      25 calls)

     Called by h_psi:
     h_psi:calbec :      1.48s CPU      1.50s WALL (      37 calls)
     vloc_psi     :     43.41s CPU     45.44s WALL (      37 calls)
     add_vuspsi   :      1.54s CPU      1.55s WALL (      37 calls)

     General routines
     calbec       :      2.25s CPU      2.27s WALL (      53 calls)
     fft          :      3.90s CPU      4.46s WALL (     128 calls)
     ffts         :      0.27s CPU      0.30s WALL (      11 calls)
     fftw         :     38.20s CPU     40.52s WALL (    3180 calls)

     Parallel routines

     PWSCF        :   1m50.98s CPU   1m57.56s WALL


   This run was terminated on:   1: 3:53  28Mar2024            

=------------------------------------------------------------------------------=
   JOB DONE.
=------------------------------------------------------------------------------=
