
     Program PWSCF v.7.2 starts on 27Mar2024 at 10:59:34 

     This program is part of the open-source Quantum ESPRESSO suite
     for quantum simulation of materials; please cite
         "P. Giannozzi et al., J. Phys.:Condens. Matter 21 395502 (2009);
         "P. Giannozzi et al., J. Phys.:Condens. Matter 29 465901 (2017);
         "P. Giannozzi et al., J. Chem. Phys. 152 154105 (2020);
          URL http://www.quantum-espresso.org", 
     in publications or presentations arising from this work. More details at
     http://www.quantum-espresso.org/quote

     Parallel version (MPI), running on    32 processors

     MPI processes distributed on     1 nodes
     170097 MiB available memory on the printing compute node when the environment starts

     Reading input from pw-wt-249.in
Warning: card &CELL ignored
Warning: card / ignored

     Current dimensions of program PWSCF are:
     Max number of different atomic species (ntypx) = 10
     Max number of k-points (npk) =  40000
     Max angular momentum in pseudopotentials (lmaxx) =  4
     file O.pbe-n-kjpaw_psl.0.1.UPF: wavefunction(s)  2P renormalized

     IMPORTANT: XC functional enforced from input :
     Exchange-correlation= PBE
                           (   1   4   3   4   0   0   0)
     Any further DFT definition will be discarded
     Please, verify this is what you really want


     gamma-point specific algorithms are used

     R & G space division:  proc/nbgrp/npool/nimage =      32
     Subspace diagonalization in iterative solution of the eigenvalue problem:
     a serial algorithm will be used


     Parallelization info
     --------------------
     sticks:   dense  smooth     PW     G-vecs:    dense   smooth      PW
     Min        1707    1707    426               301015   301015   37634
     Max        1710    1710    428               301034   301034   37648
     Sum       54693   54693  13673              9632757  9632757 1204469

     Using Slab Decomposition



     bravais-lattice index     =            0
     lattice parameter (alat)  =      75.7119  a.u.
     unit-cell volume          =  434002.3113 (a.u.)^3
     number of atoms/cell      =           66
     number of atomic types    =            2
     number of electrons       =       176.00
     number of Kohn-Sham states=           88
     kinetic-energy cutoff     =      30.0000  Ry
     charge density cutoff     =     120.0000  Ry
     scf convergence threshold =      1.0E-06
     mixing beta               =       0.5000
     number of iterations used =            8  plain     mixing
     Exchange-correlation= PBE
                           (   1   4   3   4   0   0   0)

     celldm(1)=  75.711877  celldm(2)=   0.000000  celldm(3)=   0.000000
     celldm(4)=   0.000000  celldm(5)=   0.000000  celldm(6)=   0.000000

     crystal axes: (cart. coord. in units of alat)
               a(1) = (   1.000000   0.000000   0.000000 )  
               a(2) = (   0.000000   1.000000   0.000000 )  
               a(3) = (   0.000000   0.000000   1.000000 )  

     reciprocal axes: (cart. coord. in units 2 pi/alat)
               b(1) = (  1.000000  0.000000  0.000000 )  
               b(2) = (  0.000000  1.000000  0.000000 )  
               b(3) = (  0.000000  0.000000  1.000000 )  


     PseudoPot. # 1 for H  read from file:
     /share/pfaendtnergroup/rverma7/QE_PP/H.pbe-rrkjus_psl.1.0.0.UPF
     MD5 check sum: f52b6d4d1c606e5624b1dc7b2218f220
     Pseudo is Ultrasoft, Zval =  1.0
     Generated using "atomic" code by A. Dal Corso  v.5.1
     Using radial grid of  929 points,  2 beta functions with: 
                l(1) =   0
                l(2) =   0
     Q(r) pseudized with 0 coefficients 


     PseudoPot. # 2 for O  read from file:
     /share/pfaendtnergroup/rverma7/QE_PP/O.pbe-n-kjpaw_psl.0.1.UPF
     MD5 check sum: 0234752ac141de4415c5fc33072bef88
     Pseudo is Projector augmented-wave + core cor, Zval =  6.0
     Generated using "atomic" code by A. Dal Corso  v.5.0.99 svn rev. 10869
     Shape of augmentation charge: BESSEL
     Using radial grid of 1095 points,  4 beta functions with: 
                l(1) =   0
                l(2) =   0
                l(3) =   1
                l(4) =   1
     Q(r) pseudized with 0 coefficients 


     atomic species   valence    mass     pseudopotential
        H              1.00     1.00800     H ( 1.00)
        O              6.00    15.99900     O ( 1.00)

     No symmetry found



   Cartesian axes

     site n.     atom                  positions (alat units)
         1           H   tau(   1) = (   0.2864595   0.3151129   0.3655061  )
         2           H   tau(   2) = (   0.3030825   0.3001622   0.3987021  )
         3           H   tau(   3) = (   0.4481967   0.2311993   0.3851491  )
         4           H   tau(   4) = (   0.4071883   0.2280045   0.3938101  )
         5           H   tau(   5) = (   0.3279171   0.3667291   0.4454012  )
         6           H   tau(   6) = (   0.3385499   0.3286160   0.4360165  )
         7           H   tau(   7) = (   0.1919880   0.2802196   0.4164233  )
         8           H   tau(   8) = (   0.1981530   0.2583302   0.3861974  )
         9           H   tau(   9) = (   0.2390865   0.3237739   0.4113066  )
        10           H   tau(  10) = (   0.2384126   0.2917259   0.4376388  )
        11           H   tau(  11) = (   0.2468988   0.2339199   0.3843504  )
        12           H   tau(  12) = (   0.2550855   0.2766255   0.3850743  )
        13           H   tau(  13) = (   0.2187196   0.1835018   0.4048172  )
        14           H   tau(  14) = (   0.2573069   0.1718458   0.4135530  )
        15           H   tau(  15) = (   0.2600025   0.2844128   0.4810433  )
        16           H   tau(  16) = (   0.2565831   0.2476226   0.4645701  )
        17           H   tau(  17) = (   0.2905778   0.1845751   0.2670660  )
        18           H   tau(  18) = (   0.2698365   0.1788094   0.3027580  )
        19           H   tau(  19) = (   0.2841882   0.3024835   0.3158617  )
        20           H   tau(  20) = (   0.3026332   0.3335330   0.3065019  )
        21           H   tau(  21) = (   0.3550730   0.2041433   0.4136778  )
        22           H   tau(  22) = (   0.3719705   0.1729190   0.4314239  )
        23           H   tau(  23) = (   0.3128167   0.1978036   0.3652315  )
        24           H   tau(  24) = (   0.3160364   0.2003245   0.3247223  )
        25           H   tau(  25) = (   0.2954199   0.1385249   0.4640958  )
        26           H   tau(  26) = (   0.3074254   0.1678023   0.4372644  )
        27           H   tau(  27) = (   0.1527268   0.2008985   0.4319980  )
        28           H   tau(  28) = (   0.1806814   0.2217397   0.4191439  )
        29           H   tau(  29) = (   0.4266317   0.1771871   0.4128292  )
        30           H   tau(  30) = (   0.4347435   0.1564208   0.4450268  )
        31           H   tau(  31) = (   0.4105828   0.3475103   0.3907650  )
        32           H   tau(  32) = (   0.3726694   0.3615625   0.3993011  )
        33           H   tau(  33) = (   0.2239860   0.2000499   0.4593785  )
        34           H   tau(  34) = (   0.2622239   0.1874454   0.4653937  )
        35           H   tau(  35) = (   0.2825159   0.2553600   0.3244228  )
        36           H   tau(  36) = (   0.2860851   0.2381630   0.2913016  )
        37           H   tau(  37) = (   0.2287533   0.1436915   0.3292899  )
        38           H   tau(  38) = (   0.2468239   0.1699488   0.3575440  )
        39           H   tau(  39) = (   0.3667790   0.3219019   0.3663796  )
        40           H   tau(  40) = (   0.3372020   0.3093723   0.3419943  )
        41           H   tau(  41) = (   0.3365781   0.2602770   0.4268064  )
        42           H   tau(  42) = (   0.3027580   0.2756271   0.4429552  )
        43           H   tau(  43) = (   0.3542244   0.2265818   0.3711219  )
        44           H   tau(  44) = (   0.3632347   0.2641458   0.3802820  )
        45           O   tau(  45) = (   0.2800948   0.3088481   0.3895670  )
        46           O   tau(  46) = (   0.4302508   0.2165731   0.3952827  )
        47           O   tau(  47) = (   0.3446400   0.3528766   0.4313990  )
        48           O   tau(  48) = (   0.1811307   0.2605766   0.4037938  )
        49           O   tau(  49) = (   0.2225384   0.3090977   0.4246100  )
        50           O   tau(  50) = (   0.2421815   0.2565331   0.3740172  )
        51           O   tau(  51) = (   0.2419568   0.1813303   0.3947585  )
        52           O   tau(  52) = (   0.2636715   0.2723075   0.4595532  )
        53           O   tau(  53) = (   0.2868589   0.1948833   0.2896294  )
        54           O   tau(  54) = (   0.2990141   0.3197055   0.3275178  )
        55           O   tau(  55) = (   0.3482840   0.1827031   0.4251841  )
        56           O   tau(  56) = (   0.3243479   0.2107575   0.3461126  )
        57           O   tau(  57) = (   0.2874080   0.1558717   0.4468239  )
        58           O   tau(  58) = (   0.1770872   0.1991015   0.4287034  )
        59           O   tau(  59) = (   0.4219393   0.1544490   0.4248346  )
        60           O   tau(  60) = (   0.3891926   0.3553975   0.3807313  )
        61           O   tau(  61) = (   0.2459753   0.2074878   0.4642456  )
        62           O   tau(  62) = (   0.2789717   0.2612255   0.3002122  )
        63           O   tau(  63) = (   0.2495195   0.1608636   0.3325346  )
        64           O   tau(  64) = (   0.3553226   0.3008112   0.3581929  )
        65           O   tau(  65) = (   0.3260202   0.2817422   0.4337452  )
        66           O   tau(  66) = (   0.3650318   0.2394110   0.3896169  )

     number of k points=     1
                       cart. coord. in units 2pi/alat
        k(    1) = (   0.0000000   0.0000000   0.0000000), wk =   2.0000000

     Dense  grid:  4816379 G-vectors     FFT dimensions: ( 270, 270, 270)

     Estimated max dynamical RAM per process >     612.29 MB

     Estimated total dynamical RAM >      19.13 GB

     Check: negative core charge=   -0.000006

     Initial potential from superposition of free atoms

     starting charge     175.9995, renormalised to     176.0000

     negative rho (up, down):  3.666E-01 0.000E+00
     Starting wfcs are  132 randomized atomic wfcs
     Checking if some PAW data can be deallocated... 

     total cpu time spent up to now is        8.9 secs

     Self-consistent Calculation

     iteration #  1     ecut=    30.00 Ry     beta= 0.50
     Davidson diagonalization with overlap
     ethr =  1.00E-02,  avg # of iterations =  2.0

     negative rho (up, down):  4.321E-01 0.000E+00

     total cpu time spent up to now is       18.0 secs

     total energy              =    -965.80642392 Ry
     estimated scf accuracy    <       6.83257181 Ry

     iteration #  2     ecut=    30.00 Ry     beta= 0.50
     Davidson diagonalization with overlap
     ethr =  3.88E-03,  avg # of iterations =  2.0

     negative rho (up, down):  4.517E-01 0.000E+00

     total cpu time spent up to now is       27.4 secs

     total energy              =    -967.72705372 Ry
     estimated scf accuracy    <       1.00784220 Ry

     iteration #  3     ecut=    30.00 Ry     beta= 0.50
     Davidson diagonalization with overlap
     ethr =  5.73E-04,  avg # of iterations =  2.0

     negative rho (up, down):  4.951E-01 0.000E+00

     total cpu time spent up to now is       35.8 secs

     total energy              =    -967.77933246 Ry
     estimated scf accuracy    <       0.13034050 Ry

     iteration #  4     ecut=    30.00 Ry     beta= 0.50
     Davidson diagonalization with overlap
     ethr =  7.41E-05,  avg # of iterations =  3.0

     negative rho (up, down):  4.953E-01 0.000E+00

     total cpu time spent up to now is       45.7 secs

     total energy              =    -967.80313853 Ry
     estimated scf accuracy    <       0.04033821 Ry

     iteration #  5     ecut=    30.00 Ry     beta= 0.50
     Davidson diagonalization with overlap
     ethr =  2.29E-05,  avg # of iterations =  2.0

     negative rho (up, down):  4.943E-01 0.000E+00

     total cpu time spent up to now is       53.6 secs

     total energy              =    -967.80356504 Ry
     estimated scf accuracy    <       0.00774159 Ry

     iteration #  6     ecut=    30.00 Ry     beta= 0.50
     Davidson diagonalization with overlap
     ethr =  4.40E-06,  avg # of iterations =  2.0

     negative rho (up, down):  4.935E-01 0.000E+00

     total cpu time spent up to now is       61.8 secs

     total energy              =    -967.80386791 Ry
     estimated scf accuracy    <       0.00137441 Ry

     iteration #  7     ecut=    30.00 Ry     beta= 0.50
     Davidson diagonalization with overlap
     ethr =  7.81E-07,  avg # of iterations =  2.0

     negative rho (up, down):  4.933E-01 0.000E+00

     total cpu time spent up to now is       70.9 secs

     total energy              =    -967.80410547 Ry
     estimated scf accuracy    <       0.00006821 Ry

     iteration #  8     ecut=    30.00 Ry     beta= 0.50
     Davidson diagonalization with overlap
     ethr =  3.88E-08,  avg # of iterations =  3.0

     negative rho (up, down):  4.933E-01 0.000E+00

     total cpu time spent up to now is       80.8 secs

     total energy              =    -967.80413156 Ry
     estimated scf accuracy    <       0.00001076 Ry

     iteration #  9     ecut=    30.00 Ry     beta= 0.50
     Davidson diagonalization with overlap
     ethr =  6.11E-09,  avg # of iterations =  2.0

     negative rho (up, down):  4.933E-01 0.000E+00

     total cpu time spent up to now is       88.8 secs

     total energy              =    -967.80412993 Ry
     estimated scf accuracy    <       0.00000628 Ry

     iteration # 10     ecut=    30.00 Ry     beta= 0.50
     Davidson diagonalization with overlap
     ethr =  3.57E-09,  avg # of iterations =  2.0

     negative rho (up, down):  4.934E-01 0.000E+00

     total cpu time spent up to now is       97.6 secs

     End of self-consistent calculation

          k = 0.0000 0.0000 0.0000 (602235 PWs)   bands (ev):

   -26.2090 -26.0630 -26.0076 -25.6633 -25.5140 -25.4654 -25.2807 -25.2008
   -25.0413 -25.0379 -24.9657 -24.8226 -24.7994 -24.7299 -24.5071 -24.4651
   -24.4422 -24.2595 -23.9855 -23.9647 -23.5055 -23.3159 -14.1122 -13.7521
   -13.6764 -13.5473 -13.3711 -13.2912 -13.1734 -13.0618 -13.0531 -13.0470
   -12.8085 -12.7743 -12.7406 -12.5619 -12.3361 -12.3264 -12.1848 -12.0640
   -12.0114 -11.9286 -11.5259 -11.3282 -11.0920 -10.8775 -10.7436 -10.5663
   -10.5114 -10.1989 -10.1726  -9.9539  -9.7655  -9.7299  -9.6200  -9.5474
    -9.3174  -9.2271  -9.0386  -8.8848  -8.7436  -8.5950  -8.4912  -8.4034
    -8.3557  -8.3312  -8.1309  -7.8839  -7.8773  -7.7204  -7.6423  -7.5087
    -7.4813  -7.4222  -7.3131  -7.2831  -7.2204  -7.2125  -7.1567  -7.1505
    -7.1033  -6.8771  -6.7854  -6.4859  -6.4612  -6.3796  -6.0455  -5.8167

     highest occupied level (ev):    -5.8167

!    total energy              =    -967.80413077 Ry
     estimated scf accuracy    <       0.00000022 Ry

     The total energy is the sum of the following terms:
     one-electron contribution =   -5826.95031556 Ry
     hartree contribution      =    2948.40037424 Ry
     xc contribution           =    -193.53548736 Ry
     ewald contribution        =    2313.60426430 Ry
     one-center paw contrib.   =    -209.32296639 Ry

     convergence has been achieved in  10 iterations

     negative rho (up, down):  4.934E-01 0.000E+00

     Forces acting on atoms (cartesian axes, Ry/au):

     atom    1 type  1   force =    -0.01784710    0.00114183    0.05035794
     atom    2 type  1   force =    -0.06273953    0.02092880   -0.01315355
     atom    3 type  1   force =    -0.05306940   -0.03109733    0.02235464
     atom    4 type  1   force =     0.03953031   -0.00744891   -0.01132000
     atom    5 type  1   force =     0.05622595   -0.04848910   -0.04957770
     atom    6 type  1   force =     0.00912296    0.03429930   -0.01130923
     atom    7 type  1   force =    -0.01779931   -0.02662144   -0.02771826
     atom    8 type  1   force =     0.01940208    0.00004334   -0.01535946
     atom    9 type  1   force =    -0.04515254   -0.05608957    0.03812946
     atom   10 type  1   force =    -0.04670589    0.06854581   -0.05059933
     atom   11 type  1   force =     0.00405208    0.05578001   -0.01003201
     atom   12 type  1   force =    -0.01453902   -0.05741905   -0.01974210
     atom   13 type  1   force =     0.03403255   -0.00760683   -0.01451871
     atom   14 type  1   force =    -0.05343292    0.01957855   -0.05327423
     atom   15 type  1   force =     0.00839787   -0.01498907   -0.02524156
     atom   16 type  1   force =     0.00802256    0.02644840   -0.01589076
     atom   17 type  1   force =    -0.00553579    0.01511176    0.04283387
     atom   18 type  1   force =     0.03373699    0.04351499   -0.02317452
     atom   19 type  1   force =     0.02813067   -0.00950618    0.01887607
     atom   20 type  1   force =     0.00245090   -0.00796508    0.05815951
     atom   21 type  1   force =    -0.01455307   -0.01952873    0.02056156
     atom   22 type  1   force =    -0.07708994    0.01792970   -0.02350816
     atom   23 type  1   force =     0.03177385    0.03410498   -0.07025472
     atom   24 type  1   force =     0.00476013    0.00660474    0.01602871
     atom   25 type  1   force =    -0.01603492    0.05831291   -0.06433779
     atom   26 type  1   force =     0.01853544   -0.01766564    0.01839251
     atom   27 type  1   force =     0.01317528   -0.01990010    0.00297980
     atom   28 type  1   force =     0.01150966    0.04700708   -0.01170075
     atom   29 type  1   force =    -0.00338645   -0.05169509    0.02378547
     atom   30 type  1   force =     0.01839971    0.00121286    0.02946011
     atom   31 type  1   force =    -0.03828520    0.01592697   -0.00159459
     atom   32 type  1   force =     0.03854340   -0.02104485   -0.01447471
     atom   33 type  1   force =    -0.06186518   -0.02179250   -0.01163204
     atom   34 type  1   force =    -0.03979280    0.03780401   -0.01233279
     atom   35 type  1   force =    -0.01869174    0.01242697   -0.02414725
     atom   36 type  1   force =    -0.02577973    0.04388988   -0.00008646
     atom   37 type  1   force =     0.11104611    0.09437820    0.01842004
     atom   38 type  1   force =    -0.00285118   -0.02671460   -0.05737955
     atom   39 type  1   force =     0.00081328   -0.01879475   -0.00703176
     atom   40 type  1   force =     0.03321082   -0.03390446    0.03837037
     atom   41 type  1   force =    -0.00367294    0.02087162   -0.00096685
     atom   42 type  1   force =     0.04144028    0.00913578   -0.00599383
     atom   43 type  1   force =     0.00044430    0.00502276   -0.01486568
     atom   44 type  1   force =    -0.00405897   -0.04714109    0.01063968
     atom   45 type  2   force =     0.08368054   -0.00605432   -0.02089010
     atom   46 type  2   force =     0.00544735    0.03669243   -0.01277786
     atom   47 type  2   force =    -0.06509620    0.00957660    0.06282836
     atom   48 type  2   force =    -0.00741644    0.02546964    0.03402335
     atom   49 type  2   force =     0.06830564    0.00900428    0.02264942
     atom   50 type  2   force =     0.02042426   -0.01680867    0.01116980
     atom   51 type  2   force =     0.01244252   -0.01605889    0.06678891
     atom   52 type  2   force =    -0.00951518   -0.03842481    0.05720823
     atom   53 type  2   force =    -0.02188770   -0.06471283   -0.01279944
     atom   54 type  2   force =    -0.02956006    0.02402834   -0.11372011
     atom   55 type  2   force =     0.08468659   -0.00752941    0.00974639
     atom   56 type  2   force =    -0.04505882   -0.05045523    0.05062391
     atom   57 type  2   force =     0.01249084   -0.03253364    0.04509557
     atom   58 type  2   force =    -0.01114801   -0.02433108    0.01125535
     atom   59 type  2   force =    -0.02192918    0.05994606   -0.05320589
     atom   60 type  2   force =     0.00063724    0.00586176    0.01901162
     atom   61 type  2   force =     0.09691736   -0.00221337    0.03299351
     atom   62 type  2   force =     0.02585137   -0.05116717    0.03303835
     atom   63 type  2   force =    -0.10776707   -0.07438028    0.02791208
     atom   64 type  2   force =    -0.01209910    0.02665343   -0.01715470
     atom   65 type  2   force =    -0.03321958   -0.01923975    0.01015223
     atom   66 type  2   force =     0.00994010    0.06207004   -0.01208034
     The non-local contrib.  to forces
     atom    1 type  1   force =    -0.02073383   -0.02309570    0.08310265
     atom    2 type  1   force =    -0.07271352    0.02733177   -0.02993604
     atom    3 type  1   force =    -0.07054115   -0.05349984    0.03798264
     atom    4 type  1   force =     0.07972901   -0.03589886    0.00346987
     atom    5 type  1   force =     0.05646457   -0.04975404   -0.04728050
     atom    6 type  1   force =     0.02044199    0.09195686   -0.01533749
     atom    7 type  1   force =    -0.03578370   -0.06843466   -0.04309245
     atom    8 type  1   force =    -0.07368318    0.00977071    0.07706173
     atom    9 type  1   force =    -0.05641498   -0.05163348    0.04663040
     atom   10 type  1   force =    -0.03893341    0.04615272   -0.03396280
     atom   11 type  1   force =    -0.01520480    0.08723653   -0.03594974
     atom   12 type  1   force =    -0.03576643   -0.06191942   -0.03024117
     atom   13 type  1   force =     0.08881151   -0.00936472   -0.03573212
     atom   14 type  1   force =    -0.05270189    0.03145041   -0.06121583
     atom   15 type  1   force =     0.01475146   -0.05167961   -0.08738213
     atom   16 type  1   force =     0.02161514    0.07784021   -0.01346631
     atom   17 type  1   force =    -0.01586432    0.03893859    0.09005960
     atom   18 type  1   force =     0.04557276    0.04166203   -0.03655559
     atom   19 type  1   force =     0.05415389    0.06331318    0.04226824
     atom   20 type  1   force =    -0.01407179   -0.05158971    0.07820679
     atom   21 type  1   force =    -0.02468153   -0.08176930    0.04370937
     atom   22 type  1   force =    -0.07349674    0.03211638   -0.01965394
     atom   23 type  1   force =     0.03870868    0.04331404   -0.06798319
     atom   24 type  1   force =     0.03071992    0.03797498    0.08417900
     atom   25 type  1   force =    -0.02538705    0.06184850   -0.06108304
     atom   26 type  1   force =    -0.07659113   -0.04773545    0.03920303
     atom   27 type  1   force =     0.10429584   -0.00708759   -0.01460276
     atom   28 type  1   force =    -0.01525011   -0.09137750    0.03853421
     atom   29 type  1   force =    -0.01389325   -0.07197676    0.04099728
     atom   30 type  1   force =    -0.06145096   -0.00676855   -0.09842447
     atom   31 type  1   force =    -0.08902698    0.03232044   -0.03738308
     atom   32 type  1   force =     0.06184439   -0.02300481   -0.06355158
     atom   33 type  1   force =     0.11547126    0.03488352    0.02502832
     atom   34 type  1   force =    -0.05741492    0.06613772   -0.00471545
     atom   35 type  1   force =    -0.01285880    0.02270994   -0.09545626
     atom   36 type  1   force =    -0.02331378    0.07932565    0.03135290
     atom   37 type  1   force =     0.05537867    0.04677286    0.01023969
     atom   38 type  1   force =     0.00546841   -0.02527685   -0.06655394
     atom   39 type  1   force =    -0.04335591   -0.07625034   -0.03039820
     atom   40 type  1   force =     0.06137829   -0.02717752    0.05529878
     atom   41 type  1   force =    -0.04577026    0.08700166    0.02961809
     atom   42 type  1   force =     0.07996341    0.01827961   -0.03204555
     atom   43 type  1   force =     0.04301910    0.05192413    0.07401626
     atom   44 type  1   force =     0.00473594   -0.07366594    0.02713505
     atom   45 type  2   force =     1.63154972   -0.27633829   -0.95624796
     atom   46 type  2   force =    -0.11531357    1.73381177   -0.78464493
     atom   47 type  2   force =    -1.54914652   -0.60007784    1.24616766
     atom   48 type  2   force =     1.77634020    0.75432246   -0.23187207
     atom   49 type  2   force =     1.88238947   -0.06168364   -0.17387871
     atom   50 type  2   force =     1.07693955   -0.48723872    1.51174452
     atom   51 type  2   force =    -0.52936684   -0.55924165    1.67293591
     atom   52 type  2   force =    -0.63296768   -0.47088118    1.77311145
     atom   53 type  2   force =    -0.53332702   -1.56912994   -0.89526370
     atom   54 type  2   force =    -0.61516301   -0.07673991   -1.98646136
     atom   55 type  2   force =     1.74463389    0.75188754   -0.29251805
     atom   56 type  2   force =    -1.24654083   -1.64784633    0.01009604
     atom   57 type  2   force =     1.76576836   -0.30482961    0.65660666
     atom   58 type  2   force =    -1.42035768    1.37998491   -0.34680128
     atom   59 type  2   force =     1.18332633    1.69259886    0.93356996
     atom   60 type  2   force =     0.48382777   -0.35482262    2.03455672
     atom   61 type  2   force =    -0.57217911   -1.65201761   -0.24818933
     atom   62 type  2   force =     0.81670062   -1.60622711    1.11231119
     atom   63 type  2   force =    -1.43052081   -0.50429245    0.94952455
     atom   64 type  2   force =    -0.39774955    1.65233680   -0.35203391
     atom   65 type  2   force =    -0.73804886   -1.76983476    0.02014889
     atom   66 type  2   force =    -0.66970542    0.45194933   -1.48668151
     The ionic contribution  to forces
     atom    1 type  1   force =    -0.21055863    2.73420654   -2.71509748
     atom    2 type  1   force =     2.22957820    0.65529937    0.92665182
     atom    3 type  1   force =     4.43495049    1.90414980   -1.57847532
     atom    4 type  1   force =     0.13699411    1.08107719   -0.15466146
     atom    5 type  1   force =    -1.75281883    3.74248202    2.89473321
     atom    6 type  1   force =     0.29904111   -0.86547725    2.18311667
     atom    7 type  1   force =    -1.80616102    2.90271788    1.87468238
     atom    8 type  1   force =    -0.68616400    0.08132387   -3.17844282
     atom    9 type  1   force =     0.05872067    4.34993299   -0.96155023
     atom   10 type  1   force =    -0.46489965    0.21446519    2.35870918
     atom   11 type  1   force =    -0.34433573   -2.84640078    0.56501562
     atom   12 type  1   force =    -0.09999373    2.07802270    0.31877786
     atom   13 type  1   force =    -4.10445361   -1.56203760    0.89527057
     atom   14 type  1   force =     0.90285104   -2.92814219    1.88380205
     atom   15 type  1   force =    -0.88431609    2.57520822    5.43127816
     atom   16 type  1   force =    -1.03438471   -1.89371594    2.81987262
     atom   17 type  1   force =     0.65545303   -2.28820250   -5.15633509
     atom   18 type  1   force =    -1.79795234   -2.61123367   -1.19728673
     atom   19 type  1   force =    -2.29383720   -0.07681839   -3.25865624
     atom   20 type  1   force =     0.47275219    3.65950453   -4.51512288
     atom   21 type  1   force =     1.67638110    1.03825016   -0.15223513
     atom   22 type  1   force =     3.21583124   -2.49309475    1.83057391
     atom   23 type  1   force =    -0.79511661   -2.94117670    1.49812302
     atom   24 type  1   force =     0.43576812   -2.42481642   -3.75942381
     atom   25 type  1   force =     1.04325100   -4.08877773    3.48887602
     atom   26 type  1   force =     2.43017242   -0.47626844    0.03596159
     atom   27 type  1   force =    -5.55986102   -0.66371869    1.11755956
     atom   28 type  1   force =    -1.86447918    1.72362979   -0.50849146
     atom   29 type  1   force =     2.21358996    0.78159538   -0.86264616
     atom   30 type  1   force =     3.30074922   -0.86862988    3.96532343
     atom   31 type  1   force =     4.82602975    0.20409871    1.30023289
     atom   32 type  1   force =    -0.30603119    2.96188314    1.85639873
     atom   33 type  1   force =    -4.45946186   -2.00680291    1.44999813
     atom   34 type  1   force =     1.19957461   -2.95331689    2.59918749
     atom   35 type  1   force =    -0.07044932   -0.42452935    1.10884303
     atom   36 type  1   force =     0.58035195   -1.81160576   -3.58557557
     atom   37 type  1   force =    -3.25721176   -3.55542412   -1.48540475
     atom   38 type  1   force =    -1.09591798   -1.13815196    0.74935101
     atom   39 type  1   force =     2.65545240    3.22268940   -0.14069243
     atom   40 type  1   force =    -0.24056124    1.99333998   -3.25542232
     atom   41 type  1   force =     2.34386228   -2.43629578    0.96876304
     atom   42 type  1   force =    -1.39949294   -0.16017512    2.79481050
     atom   43 type  1   force =     0.60769594   -1.99194480   -2.81404960
     atom   44 type  1   force =     1.82977079    2.33770436   -1.02533409
     atom   45 type  2   force =    -5.23109813   12.48825216    0.82210208
     atom   46 type  2   force =    13.74933367   -2.98875209    0.15084393
     atom   47 type  2   force =     5.66274726   13.23703982    6.15612139
     atom   48 type  2   force =   -19.11139007    2.39870814   -0.28916423
     atom   49 type  2   force =   -13.55419740   13.20953370    5.64262340
     atom   50 type  2   force =    -9.32481001    1.16066863   -8.84008811
     atom   51 type  2   force =    -5.16055003   -9.31251616   -3.09609631
     atom   52 type  2   force =    -1.15985458    4.45307407   11.92972974
     atom   53 type  2   force =     1.06349735   -4.34352143  -13.07532771
     atom   54 type  2   force =    -0.19254645   12.41355425   -8.69936078
     atom   55 type  2   force =     3.00402824  -10.13492226    6.50649519
     atom   56 type  2   force =     7.33710969   -4.39649462   -7.45961092
     atom   57 type  2   force =    -1.85266389  -12.88668092    6.99418240
     atom   58 type  2   force =   -11.36532384   -9.49793648    5.08717425
     atom   59 type  2   force =     6.50392824  -11.63763273    1.52375647
     atom   60 type  2   force =     9.76468767   11.34415863   -5.15641416
     atom   61 type  2   force =    -3.46830435   -2.05905258   13.92897091
     atom   62 type  2   force =    -4.81261600    5.54005922  -16.28010551
     atom   63 type  2   force =    -4.05786424  -11.22271901   -8.83648963
     atom   64 type  2   force =    10.20304897    2.69075238   -6.82478886
     atom   65 type  2   force =     7.67572722    5.92979995   10.90792876
     atom   66 type  2   force =    11.30674772   -1.12019626    2.29650877
     The local contribution  to forces
     atom    1 type  1   force =     0.21344302   -2.70996658    2.68234021
     atom    2 type  1   force =    -2.21959768   -0.66170482   -0.90988185
     atom    3 type  1   force =    -4.41748505   -1.88174297    1.56283485
     atom    4 type  1   force =    -0.17719815   -1.05262479    0.13985855
     atom    5 type  1   force =     1.75255920   -3.74120007   -2.89703036
     atom    6 type  1   force =    -0.31037453    0.80781093   -2.17909608
     atom    7 type  1   force =     1.82414891   -2.86089371   -1.85931883
     atom    8 type  1   force =     0.77926293   -0.09104453    3.08599993
     atom    9 type  1   force =    -0.04745202   -4.35437086    0.95302768
     atom   10 type  1   force =     0.45712090   -0.19207644   -2.37535302
     atom   11 type  1   force =     0.36357869    2.81495139   -0.53910728
     atom   12 type  1   force =     0.12120878   -2.07352178   -0.30828861
     atom   13 type  1   force =     4.04964812    1.56379862   -0.87404968
     atom   14 type  1   force =    -0.90359214    2.91626738   -1.87584986
     atom   15 type  1   force =     0.87794547   -2.53850114   -5.36911983
     atom   16 type  1   force =     1.02077516    1.84231891   -2.82229392
     atom   17 type  1   force =    -0.64513329    2.26438118    5.10909672
     atom   18 type  1   force =     1.78611499    2.61309723    1.21064002
     atom   19 type  1   force =     2.26779447    0.00399544    3.23523672
     atom   20 type  1   force =    -0.45623532   -3.61586525    4.49503598
     atom   21 type  1   force =    -1.66625399   -0.97600275    0.12907447
     atom   22 type  1   force =    -3.21941787    2.47890891   -1.83443768
     atom   23 type  1   force =     0.78818296    2.93197794   -1.50041355
     atom   24 type  1   force =    -0.46173156    2.39345649    3.69126537
     atom   25 type  1   force =    -1.03390332    4.08524491   -3.49213533
     atom   26 type  1   force =    -2.33505221    0.50634168   -0.05677850
     atom   27 type  1   force =     5.46872852    0.65091072   -1.09998673
     atom   28 type  1   force =     1.89123686   -1.58524763    0.45824754
     atom   29 type  1   force =    -2.20309520   -0.76132018    0.84542938
     atom   30 type  1   force =    -3.22091665    0.87661370   -3.83746224
     atom   31 type  1   force =    -4.77529737   -0.22048850   -1.26445352
     atom   32 type  1   force =     0.28272650   -2.95991938   -1.80733550
     atom   33 type  1   force =     4.28208543    1.95011094   -1.48667934
     atom   34 type  1   force =    -1.18194947    2.92495721   -2.60681595
     atom   35 type  1   force =     0.06461576    0.41423761   -1.03752320
     atom   36 type  1   force =    -0.58281663    1.77614706    3.55412491
     atom   37 type  1   force =     3.31284187    3.60301214    1.49357168
     atom   38 type  1   force =     1.08758058    1.13672240   -0.74016550
     atom   39 type  1   force =    -2.61127987   -3.16519691    0.16405617
     atom   40 type  1   force =     0.21237400   -2.00004690    3.23846600
     atom   41 type  1   force =    -2.30177666    2.37016133   -0.99936220
     atom   42 type  1   force =     1.36096799    0.15102893   -2.76877445
     atom   43 type  1   force =    -0.65028799    1.94504014    2.72514382
     atom   44 type  1   force =    -1.83857804   -2.31117831    1.00882783
     atom   45 type  2   force =     3.69993731  -12.22080742    0.10373831
     atom   46 type  2   force =   -13.62933096    1.30979274    0.61267734
     atom   47 type  2   force =    -4.19536142  -12.63209657   -7.32656975
     atom   48 type  2   force =    17.34482378   -3.12010489    0.55289494
     atom   49 type  2   force =    11.75868360  -13.13959213   -5.44755293
     atom   50 type  2   force =     8.27875850   -0.69538979    7.35473890
     atom   51 type  2   force =     5.69643330    9.84942682    1.50793866
     atom   52 type  2   force =     1.77735485   -4.02522041  -13.62697464
     atom   53 type  2   force =    -0.55738913    5.83162100   13.94764840
     atom   54 type  2   force =     0.77242985  -12.31275265   10.55153062
     atom   55 type  2   force =    -4.64686035    9.38329990   -6.20608543
     atom   56 type  2   force =    -6.14825308    5.97693384    7.50040019
     atom   57 type  2   force =     0.11745842   13.15454882   -7.59806571
     atom   58 type  2   force =    12.76042680    8.10603988   -4.73197308
     atom   59 type  2   force =    -7.69599209   10.02147127   -2.50124053
     atom   60 type  2   force =   -10.24278470  -10.98684837    3.16189232
     atom   61 type  2   force =     4.13230468    3.69250792  -13.65035477
     atom   62 type  2   force =     4.03000017   -4.00026883   15.21123761
     atom   63 type  2   force =     5.36468709   11.64641658    7.92452745
     atom   64 type  2   force =    -9.82120313   -4.30087688    7.15611788
     atom   65 type  2   force =    -6.97763882   -4.19652070  -10.91702107
     atom   66 type  2   force =   -10.63310924    0.73574545   -0.83687223
     The core correction contribution to forces
     atom    1 type  1   force =     0.00000000    0.00000000    0.00000000
     atom    2 type  1   force =     0.00000000    0.00000000    0.00000000
     atom    3 type  1   force =     0.00000000    0.00000000    0.00000000
     atom    4 type  1   force =     0.00000000    0.00000000    0.00000000
     atom    5 type  1   force =     0.00000000    0.00000000    0.00000000
     atom    6 type  1   force =     0.00000000    0.00000000    0.00000000
     atom    7 type  1   force =     0.00000000    0.00000000    0.00000000
     atom    8 type  1   force =     0.00000000    0.00000000    0.00000000
     atom    9 type  1   force =     0.00000000    0.00000000    0.00000000
     atom   10 type  1   force =     0.00000000    0.00000000    0.00000000
     atom   11 type  1   force =     0.00000000    0.00000000    0.00000000
     atom   12 type  1   force =     0.00000000    0.00000000    0.00000000
     atom   13 type  1   force =     0.00000000    0.00000000    0.00000000
     atom   14 type  1   force =     0.00000000    0.00000000    0.00000000
     atom   15 type  1   force =     0.00000000    0.00000000    0.00000000
     atom   16 type  1   force =     0.00000000    0.00000000    0.00000000
     atom   17 type  1   force =     0.00000000    0.00000000    0.00000000
     atom   18 type  1   force =     0.00000000    0.00000000    0.00000000
     atom   19 type  1   force =     0.00000000    0.00000000    0.00000000
     atom   20 type  1   force =     0.00000000    0.00000000    0.00000000
     atom   21 type  1   force =     0.00000000    0.00000000    0.00000000
     atom   22 type  1   force =     0.00000000    0.00000000    0.00000000
     atom   23 type  1   force =     0.00000000    0.00000000    0.00000000
     atom   24 type  1   force =     0.00000000    0.00000000    0.00000000
     atom   25 type  1   force =     0.00000000    0.00000000    0.00000000
     atom   26 type  1   force =     0.00000000    0.00000000    0.00000000
     atom   27 type  1   force =     0.00000000    0.00000000    0.00000000
     atom   28 type  1   force =     0.00000000    0.00000000    0.00000000
     atom   29 type  1   force =     0.00000000    0.00000000    0.00000000
     atom   30 type  1   force =     0.00000000    0.00000000    0.00000000
     atom   31 type  1   force =     0.00000000    0.00000000    0.00000000
     atom   32 type  1   force =     0.00000000    0.00000000    0.00000000
     atom   33 type  1   force =     0.00000000    0.00000000    0.00000000
     atom   34 type  1   force =     0.00000000    0.00000000    0.00000000
     atom   35 type  1   force =     0.00000000    0.00000000    0.00000000
     atom   36 type  1   force =     0.00000000    0.00000000    0.00000000
     atom   37 type  1   force =     0.00000000    0.00000000    0.00000000
     atom   38 type  1   force =     0.00000000    0.00000000    0.00000000
     atom   39 type  1   force =     0.00000000    0.00000000    0.00000000
     atom   40 type  1   force =     0.00000000    0.00000000    0.00000000
     atom   41 type  1   force =     0.00000000    0.00000000    0.00000000
     atom   42 type  1   force =     0.00000000    0.00000000    0.00000000
     atom   43 type  1   force =     0.00000000    0.00000000    0.00000000
     atom   44 type  1   force =     0.00000000    0.00000000    0.00000000
     atom   45 type  2   force =    -0.01658146    0.00281059    0.00947477
     atom   46 type  2   force =     0.00078439   -0.01811965    0.00829828
     atom   47 type  2   force =     0.01660033    0.00475579   -0.01285451
     atom   48 type  2   force =    -0.01699410   -0.00737413    0.00209852
     atom   49 type  2   force =    -0.01847262    0.00070727    0.00144490
     atom   50 type  2   force =    -0.01048534    0.00510153   -0.01518942
     atom   51 type  2   force =     0.00583795    0.00622155   -0.01783117
     atom   52 type  2   force =     0.00588149    0.00464030   -0.01850933
     atom   53 type  2   force =     0.00531825    0.01629772    0.01004486
     atom   54 type  2   force =     0.00569954   -0.00003634    0.02038075
     atom   55 type  2   force =    -0.01700018   -0.00777058    0.00184232
     atom   56 type  2   force =     0.01262340    0.01692300   -0.00030091
     atom   57 type  2   force =    -0.01800273    0.00443804   -0.00759062
     atom   58 type  2   force =     0.01411155   -0.01237971    0.00283364
     atom   59 type  2   force =    -0.01317835   -0.01648466   -0.00926661
     atom   60 type  2   force =    -0.00505915    0.00333330   -0.02094868
     atom   61 type  2   force =     0.00501431    0.01619371    0.00252872
     atom   62 type  2   force =    -0.00818008    0.01512435   -0.01030596
     atom   63 type  2   force =     0.01585628    0.00618772   -0.00964346
     atom   64 type  2   force =     0.00377967   -0.01537195    0.00351252
     atom   65 type  2   force =     0.00670132    0.01715920   -0.00094933
     atom   66 type  2   force =     0.00592677   -0.00543220    0.01485990
     The Hubbard contrib.    to forces
     atom    1 type  1   force =     0.00000000    0.00000000    0.00000000
     atom    2 type  1   force =     0.00000000    0.00000000    0.00000000
     atom    3 type  1   force =     0.00000000    0.00000000    0.00000000
     atom    4 type  1   force =     0.00000000    0.00000000    0.00000000
     atom    5 type  1   force =     0.00000000    0.00000000    0.00000000
     atom    6 type  1   force =     0.00000000    0.00000000    0.00000000
     atom    7 type  1   force =     0.00000000    0.00000000    0.00000000
     atom    8 type  1   force =     0.00000000    0.00000000    0.00000000
     atom    9 type  1   force =     0.00000000    0.00000000    0.00000000
     atom   10 type  1   force =     0.00000000    0.00000000    0.00000000
     atom   11 type  1   force =     0.00000000    0.00000000    0.00000000
     atom   12 type  1   force =     0.00000000    0.00000000    0.00000000
     atom   13 type  1   force =     0.00000000    0.00000000    0.00000000
     atom   14 type  1   force =     0.00000000    0.00000000    0.00000000
     atom   15 type  1   force =     0.00000000    0.00000000    0.00000000
     atom   16 type  1   force =     0.00000000    0.00000000    0.00000000
     atom   17 type  1   force =     0.00000000    0.00000000    0.00000000
     atom   18 type  1   force =     0.00000000    0.00000000    0.00000000
     atom   19 type  1   force =     0.00000000    0.00000000    0.00000000
     atom   20 type  1   force =     0.00000000    0.00000000    0.00000000
     atom   21 type  1   force =     0.00000000    0.00000000    0.00000000
     atom   22 type  1   force =     0.00000000    0.00000000    0.00000000
     atom   23 type  1   force =     0.00000000    0.00000000    0.00000000
     atom   24 type  1   force =     0.00000000    0.00000000    0.00000000
     atom   25 type  1   force =     0.00000000    0.00000000    0.00000000
     atom   26 type  1   force =     0.00000000    0.00000000    0.00000000
     atom   27 type  1   force =     0.00000000    0.00000000    0.00000000
     atom   28 type  1   force =     0.00000000    0.00000000    0.00000000
     atom   29 type  1   force =     0.00000000    0.00000000    0.00000000
     atom   30 type  1   force =     0.00000000    0.00000000    0.00000000
     atom   31 type  1   force =     0.00000000    0.00000000    0.00000000
     atom   32 type  1   force =     0.00000000    0.00000000    0.00000000
     atom   33 type  1   force =     0.00000000    0.00000000    0.00000000
     atom   34 type  1   force =     0.00000000    0.00000000    0.00000000
     atom   35 type  1   force =     0.00000000    0.00000000    0.00000000
     atom   36 type  1   force =     0.00000000    0.00000000    0.00000000
     atom   37 type  1   force =     0.00000000    0.00000000    0.00000000
     atom   38 type  1   force =     0.00000000    0.00000000    0.00000000
     atom   39 type  1   force =     0.00000000    0.00000000    0.00000000
     atom   40 type  1   force =     0.00000000    0.00000000    0.00000000
     atom   41 type  1   force =     0.00000000    0.00000000    0.00000000
     atom   42 type  1   force =     0.00000000    0.00000000    0.00000000
     atom   43 type  1   force =     0.00000000    0.00000000    0.00000000
     atom   44 type  1   force =     0.00000000    0.00000000    0.00000000
     atom   45 type  2   force =     0.00000000    0.00000000    0.00000000
     atom   46 type  2   force =     0.00000000    0.00000000    0.00000000
     atom   47 type  2   force =     0.00000000    0.00000000    0.00000000
     atom   48 type  2   force =     0.00000000    0.00000000    0.00000000
     atom   49 type  2   force =     0.00000000    0.00000000    0.00000000
     atom   50 type  2   force =     0.00000000    0.00000000    0.00000000
     atom   51 type  2   force =     0.00000000    0.00000000    0.00000000
     atom   52 type  2   force =     0.00000000    0.00000000    0.00000000
     atom   53 type  2   force =     0.00000000    0.00000000    0.00000000
     atom   54 type  2   force =     0.00000000    0.00000000    0.00000000
     atom   55 type  2   force =     0.00000000    0.00000000    0.00000000
     atom   56 type  2   force =     0.00000000    0.00000000    0.00000000
     atom   57 type  2   force =     0.00000000    0.00000000    0.00000000
     atom   58 type  2   force =     0.00000000    0.00000000    0.00000000
     atom   59 type  2   force =     0.00000000    0.00000000    0.00000000
     atom   60 type  2   force =     0.00000000    0.00000000    0.00000000
     atom   61 type  2   force =     0.00000000    0.00000000    0.00000000
     atom   62 type  2   force =     0.00000000    0.00000000    0.00000000
     atom   63 type  2   force =     0.00000000    0.00000000    0.00000000
     atom   64 type  2   force =     0.00000000    0.00000000    0.00000000
     atom   65 type  2   force =     0.00000000    0.00000000    0.00000000
     atom   66 type  2   force =     0.00000000    0.00000000    0.00000000
     The SCF correction term to forces
     atom    1 type  1   force =    -0.00000665    0.00000234    0.00000188
     atom    2 type  1   force =    -0.00001551    0.00000725    0.00000185
     atom    3 type  1   force =    -0.00000268    0.00000046    0.00000180
     atom    4 type  1   force =    -0.00000365    0.00000232    0.00000236
     atom    5 type  1   force =     0.00001202   -0.00001224   -0.00001073
     atom    6 type  1   force =     0.00000541    0.00001354   -0.00000301
     atom    7 type  1   force =    -0.00001249   -0.00000618   -0.00000003
     atom    8 type  1   force =    -0.00002265   -0.00000194    0.00001102
     atom    9 type  1   force =    -0.00001519   -0.00001346    0.00001094
     atom   10 type  1   force =    -0.00000271    0.00000912   -0.00000335
     atom   11 type  1   force =     0.00000494   -0.00000235   -0.00000128
     atom   12 type  1   force =     0.00000337    0.00000422   -0.00000085
     atom   13 type  1   force =     0.00001755    0.00000164   -0.00001815
     atom   14 type  1   force =     0.00000109    0.00000772   -0.00002126
     atom   15 type  1   force =     0.00000805   -0.00001177   -0.00002842
     atom   16 type  1   force =     0.00000799    0.00001000   -0.00001381
     atom   17 type  1   force =    -0.00000020   -0.00000074    0.00000197
     atom   18 type  1   force =    -0.00000740   -0.00000583    0.00001710
     atom   19 type  1   force =     0.00001053    0.00000836    0.00001668
     atom   20 type  1   force =    -0.00000316   -0.00000988    0.00002896
     atom   21 type  1   force =    -0.00000764   -0.00000207    0.00000217
     atom   22 type  1   force =    -0.00001556    0.00000394   -0.00000112
     atom   23 type  1   force =    -0.00001016   -0.00000553    0.00000833
     atom   24 type  1   force =    -0.00000534   -0.00000553   -0.00000252
     atom   25 type  1   force =    -0.00000454    0.00000201   -0.00000612
     atom   26 type  1   force =    -0.00000263    0.00000134   -0.00000427
     atom   27 type  1   force =     0.00000296    0.00000022   -0.00000093
     atom   28 type  1   force =    -0.00000688    0.00000718   -0.00000171
     atom   29 type  1   force =     0.00000306    0.00001124   -0.00000570
     atom   30 type  1   force =     0.00000912    0.00000236    0.00001273
     atom   31 type  1   force =     0.00000042    0.00000110   -0.00000155
     atom   32 type  1   force =    -0.00000528    0.00000098    0.00000297
     atom   33 type  1   force =     0.00003100    0.00002072    0.00001019
     atom   34 type  1   force =    -0.00001201    0.00003074    0.00000045
     atom   35 type  1   force =    -0.00000838    0.00001354   -0.00002149
     atom   36 type  1   force =    -0.00001025    0.00002769    0.00000062
     atom   37 type  1   force =     0.00002833    0.00002208    0.00000276
     atom   38 type  1   force =     0.00000883   -0.00000341   -0.00002179
     atom   39 type  1   force =    -0.00001233   -0.00003212   -0.00000798
     atom   40 type  1   force =     0.00001079   -0.00001525    0.00001723
     atom   41 type  1   force =     0.00000271    0.00000918    0.00000354
     atom   42 type  1   force =    -0.00000717    0.00000713    0.00000499
     atom   43 type  1   force =     0.00000827    0.00000806    0.00001317
     atom   44 type  1   force =     0.00000336    0.00000357    0.00000022
     atom   45 type  2   force =    -0.00013589    0.00003340    0.00003203
     atom   46 type  2   force =    -0.00003516   -0.00003556    0.00003685
     atom   47 type  2   force =     0.00005516   -0.00003983   -0.00004711
     atom   48 type  2   force =    -0.00020524   -0.00007717    0.00005551
     atom   49 type  2   force =    -0.00010640    0.00004386    0.00000209
     atom   50 type  2   force =     0.00001259    0.00005444   -0.00004676
     atom   51 type  2   force =     0.00007916    0.00005532   -0.00016886
     atom   52 type  2   force =     0.00006175   -0.00003282   -0.00015965
     atom   53 type  2   force =     0.00000387    0.00002459    0.00008805
     atom   54 type  2   force =     0.00001102    0.00000776    0.00017998
     atom   55 type  2   force =    -0.00012399   -0.00001923    0.00000168
     atom   56 type  2   force =    -0.00000698    0.00003365    0.00002885
     atom   57 type  2   force =    -0.00007831   -0.00000520   -0.00004784
     atom   58 type  2   force =    -0.00001383   -0.00003490    0.00001116
     atom   59 type  2   force =    -0.00002230   -0.00000191   -0.00003585
     atom   60 type  2   force =    -0.00004335    0.00004559   -0.00008525
     atom   61 type  2   force =     0.00007285    0.00015996    0.00002732
     atom   62 type  2   force =    -0.00006233    0.00014998   -0.00010965
     atom   63 type  2   force =     0.00006563    0.00003165   -0.00001751
     atom   64 type  2   force =     0.00001595   -0.00018215    0.00002699
     atom   65 type  2   force =     0.00003057    0.00016132    0.00003432
     atom   66 type  2   force =     0.00007129    0.00000849    0.00009405

     Total force =     0.518803     Total SCF correction =     0.000648


     Computing stress (Cartesian axis) and pressure


     negative rho (up, down):  4.934E-01 0.000E+00
          total   stress  (Ry/bohr**3)                   (kbar)     P=       -2.90
  -0.00001993   0.00000026   0.00000011           -2.93        0.04        0.02
   0.00000026  -0.00002015   0.00000080            0.04       -2.96        0.12
   0.00000011   0.00000080  -0.00001914            0.02        0.12       -2.81


     init_run     :      8.12s CPU      8.59s WALL (       1 calls)
     electrons    :     83.20s CPU     88.78s WALL (       1 calls)
     forces       :      5.57s CPU      5.98s WALL (       1 calls)
     stress       :     17.43s CPU     17.84s WALL (       1 calls)

     Called by init_run:
     wfcinit      :      3.08s CPU      3.28s WALL (       1 calls)
     potinit      :      1.31s CPU      1.38s WALL (       1 calls)
     hinit0       :      0.99s CPU      1.06s WALL (       1 calls)

     Called by electrons:
     c_bands      :     55.63s CPU     58.44s WALL (      10 calls)
     sum_band     :     15.89s CPU     17.19s WALL (      10 calls)
     v_of_rho     :      6.80s CPU      7.40s WALL (      11 calls)
     newd         :      3.51s CPU      4.39s WALL (      11 calls)
     PAW_pot      :      1.00s CPU      1.00s WALL (      11 calls)
     mix_rho      :      1.20s CPU      1.30s WALL (      10 calls)

     Called by c_bands:
     init_us_2    :      0.84s CPU      0.86s WALL (      21 calls)
     init_us_2:cp :      0.84s CPU      0.86s WALL (      21 calls)
     regterg      :     54.66s CPU     57.47s WALL (      10 calls)

     Called by *egterg:
     rdiaghg      :      0.20s CPU      0.20s WALL (      32 calls)
     h_psi        :     49.19s CPU     51.55s WALL (      33 calls)
     s_psi        :      1.40s CPU      1.42s WALL (      33 calls)
     g_psi        :      0.16s CPU      0.17s WALL (      22 calls)

     Called by h_psi:
     h_psi:calbec :      1.21s CPU      1.23s WALL (      33 calls)
     vloc_psi     :     46.12s CPU     48.45s WALL (      33 calls)
     add_vuspsi   :      1.38s CPU      1.39s WALL (      33 calls)

     General routines
     calbec       :      1.81s CPU      1.82s WALL (      48 calls)
     fft          :      3.99s CPU      4.58s WALL (     119 calls)
     ffts         :      0.27s CPU      0.32s WALL (      10 calls)
     fftw         :     39.13s CPU     41.80s WALL (    2922 calls)

     Parallel routines

     PWSCF        :   1m54.46s CPU   2m 1.53s WALL


   This run was terminated on:  11: 1:36  27Mar2024            

=------------------------------------------------------------------------------=
   JOB DONE.
=------------------------------------------------------------------------------=
