
     Program PWSCF v.7.2 starts on 28Mar2024 at  0:31:44 

     This program is part of the open-source Quantum ESPRESSO suite
     for quantum simulation of materials; please cite
         "P. Giannozzi et al., J. Phys.:Condens. Matter 21 395502 (2009);
         "P. Giannozzi et al., J. Phys.:Condens. Matter 29 465901 (2017);
         "P. Giannozzi et al., J. Chem. Phys. 152 154105 (2020);
          URL http://www.quantum-espresso.org", 
     in publications or presentations arising from this work. More details at
     http://www.quantum-espresso.org/quote

     Parallel version (MPI), running on    32 processors

     MPI processes distributed on     1 nodes
     175047 MiB available memory on the printing compute node when the environment starts

     Reading input from pw-wt-462.in
Warning: card &CELL ignored
Warning: card / ignored

     Current dimensions of program PWSCF are:
     Max number of different atomic species (ntypx) = 10
     Max number of k-points (npk) =  40000
     Max angular momentum in pseudopotentials (lmaxx) =  4
     file O.pbe-n-kjpaw_psl.0.1.UPF: wavefunction(s)  2P renormalized

     IMPORTANT: XC functional enforced from input :
     Exchange-correlation= PBE
                           (   1   4   3   4   0   0   0)
     Any further DFT definition will be discarded
     Please, verify this is what you really want


     gamma-point specific algorithms are used

     R & G space division:  proc/nbgrp/npool/nimage =      32
     Subspace diagonalization in iterative solution of the eigenvalue problem:
     a serial algorithm will be used


     Parallelization info
     --------------------
     sticks:   dense  smooth     PW     G-vecs:    dense   smooth      PW
     Min        1707    1707    426               301015   301015   37634
     Max        1710    1710    428               301034   301034   37648
     Sum       54693   54693  13673              9632757  9632757 1204469

     Using Slab Decomposition



     bravais-lattice index     =            0
     lattice parameter (alat)  =      75.7119  a.u.
     unit-cell volume          =  434002.3113 (a.u.)^3
     number of atoms/cell      =           66
     number of atomic types    =            2
     number of electrons       =       176.00
     number of Kohn-Sham states=           88
     kinetic-energy cutoff     =      30.0000  Ry
     charge density cutoff     =     120.0000  Ry
     scf convergence threshold =      1.0E-06
     mixing beta               =       0.5000
     number of iterations used =            8  plain     mixing
     Exchange-correlation= PBE
                           (   1   4   3   4   0   0   0)

     celldm(1)=  75.711877  celldm(2)=   0.000000  celldm(3)=   0.000000
     celldm(4)=   0.000000  celldm(5)=   0.000000  celldm(6)=   0.000000

     crystal axes: (cart. coord. in units of alat)
               a(1) = (   1.000000   0.000000   0.000000 )  
               a(2) = (   0.000000   1.000000   0.000000 )  
               a(3) = (   0.000000   0.000000   1.000000 )  

     reciprocal axes: (cart. coord. in units 2 pi/alat)
               b(1) = (  1.000000  0.000000  0.000000 )  
               b(2) = (  0.000000  1.000000  0.000000 )  
               b(3) = (  0.000000  0.000000  1.000000 )  


     PseudoPot. # 1 for H  read from file:
     /share/pfaendtnergroup/rverma7/QE_PP/H.pbe-rrkjus_psl.1.0.0.UPF
     MD5 check sum: f52b6d4d1c606e5624b1dc7b2218f220
     Pseudo is Ultrasoft, Zval =  1.0
     Generated using "atomic" code by A. Dal Corso  v.5.1
     Using radial grid of  929 points,  2 beta functions with: 
                l(1) =   0
                l(2) =   0
     Q(r) pseudized with 0 coefficients 


     PseudoPot. # 2 for O  read from file:
     /share/pfaendtnergroup/rverma7/QE_PP/O.pbe-n-kjpaw_psl.0.1.UPF
     MD5 check sum: 0234752ac141de4415c5fc33072bef88
     Pseudo is Projector augmented-wave + core cor, Zval =  6.0
     Generated using "atomic" code by A. Dal Corso  v.5.0.99 svn rev. 10869
     Shape of augmentation charge: BESSEL
     Using radial grid of 1095 points,  4 beta functions with: 
                l(1) =   0
                l(2) =   0
                l(3) =   1
                l(4) =   1
     Q(r) pseudized with 0 coefficients 


     atomic species   valence    mass     pseudopotential
        H              1.00     1.00800     H ( 1.00)
        O              6.00    15.99900     O ( 1.00)

     No symmetry found



   Cartesian axes

     site n.     atom                  positions (alat units)
         1           H   tau(   1) = (   0.3672283   0.2503432   0.4431050  )
         2           H   tau(   2) = (   0.3406464   0.2215899   0.4494197  )
         3           H   tau(   3) = (   0.2815675   0.2920754   0.3755397  )
         4           H   tau(   4) = (   0.3157619   0.2858355   0.4009984  )
         5           H   tau(   5) = (   0.2325222   0.1687258   0.3132909  )
         6           H   tau(   6) = (   0.2620741   0.1911893   0.3298141  )
         7           H   tau(   7) = (   0.3545239   0.3011606   0.3711219  )
         8           H   tau(   8) = (   0.3748658   0.2834394   0.4017721  )
         9           H   tau(   9) = (   0.2951703   0.3416199   0.3241732  )
        10           H   tau(  10) = (   0.3164358   0.3677524   0.3075253  )
        11           H   tau(  11) = (   0.1843255   0.2429552   0.3621365  )
        12           H   tau(  12) = (   0.2123549   0.2339698   0.3336079  )
        13           H   tau(  13) = (   0.3028579   0.1415450   0.4751778  )
        14           H   tau(  14) = (   0.2897292   0.1686260   0.4517659  )
        15           H   tau(  15) = (   0.3435917   0.3660052   0.4705853  )
        16           H   tau(  16) = (   0.3244727   0.3330837   0.4622239  )
        17           H   tau(  17) = (   0.2750031   0.2209659   0.4511669  )
        18           H   tau(  18) = (   0.2904780   0.2231873   0.4905778  )
        19           H   tau(  19) = (   0.2405341   0.3149133   0.3396231  )
        20           H   tau(  20) = (   0.2586297   0.2900037   0.3177836  )
        21           H   tau(  21) = (   0.2285536   0.1743167   0.3737177  )
        22           H   tau(  22) = (   0.2275802   0.1454387   0.3989018  )
        23           H   tau(  23) = (   0.1883689   0.2921253   0.3331337  )
        24           H   tau(  24) = (   0.1757644   0.3219269   0.3061525  )
        25           H   tau(  25) = (   0.3961562   0.1950580   0.4360165  )
        26           H   tau(  26) = (   0.4276800   0.1714464   0.4502683  )
        27           H   tau(  27) = (   0.2632971   0.2555847   0.4143766  )
        28           H   tau(  28) = (   0.2331961   0.2279296   0.4163484  )
        29           H   tau(  29) = (   0.2889055   0.2960439   0.4395108  )
        30           H   tau(  30) = (   0.2679146   0.3051791   0.4719081  )
        31           H   tau(  31) = (   0.3216773   0.1712717   0.3051541  )
        32           H   tau(  32) = (   0.3183826   0.2012480   0.3310121  )
        33           H   tau(  33) = (   0.1905653   0.2014227   0.4043429  )
        34           H   tau(  34) = (   0.1552228   0.2207912   0.4100836  )
        35           H   tau(  35) = (   0.3485586   0.3579184   0.4014227  )
        36           H   tau(  36) = (   0.3420192   0.3540996   0.3577187  )
        37           H   tau(  37) = (   0.3461625   0.2329714   0.3690503  )
        38           H   tau(  38) = (   0.3709971   0.2068888   0.3548983  )
        39           H   tau(  39) = (   0.2746038   0.1233246   0.4203919  )
        40           H   tau(  40) = (   0.2807438   0.0980906   0.3896668  )
        41           H   tau(  41) = (   0.4118557   0.2988144   0.4466492  )
        42           H   tau(  42) = (   0.3749906   0.3165606   0.4448022  )
        43           H   tau(  43) = (   0.4102833   0.1875702   0.3808311  )
        44           H   tau(  44) = (   0.4305004   0.1949832   0.3474105  )
        45           O   tau(  45) = (   0.3655560   0.2259329   0.4431798  )
        46           O   tau(  46) = (   0.2900037   0.2839386   0.3979284  )
        47           O   tau(  47) = (   0.2371896   0.1840260   0.3326345  )
        48           O   tau(  48) = (   0.3562960   0.2787970   0.3829028  )
        49           O   tau(  49) = (   0.3135904   0.3573194   0.3291901  )
        50           O   tau(  50) = (   0.1944590   0.2512417   0.3400724  )
        51           O   tau(  51) = (   0.2912268   0.1423936   0.4538375  )
        52           O   tau(  52) = (   0.3456633   0.3473605   0.4546362  )
        53           O   tau(  53) = (   0.2934481   0.2115313   0.4675652  )
        54           O   tau(  54) = (   0.2645451   0.3072258   0.3344066  )
        55           O   tau(  55) = (   0.2172719   0.1689505   0.3953076  )
        56           O   tau(  56) = (   0.1928366   0.3144390   0.3246724  )
        57           O   tau(  57) = (   0.4182454   0.1823537   0.4297267  )
        58           O   tau(  58) = (   0.2510171   0.2384375   0.4289530  )
        59           O   tau(  59) = (   0.2899289   0.3100961   0.4610258  )
        60           O   tau(  60) = (   0.3035318   0.1877449   0.3121428  )
        61           O   tau(  61) = (   0.1788843   0.2249345   0.4012979  )
        62           O   tau(  62) = (   0.3556720   0.3484588   0.3793336  )
        63           O   tau(  63) = (   0.3442156   0.2115063   0.3557968  )
        64           O   tau(  64) = (   0.2627980   0.1125172   0.3995258  )
        65           O   tau(  65) = (   0.3883689   0.2949457   0.4409335  )
        66           O   tau(  66) = (   0.4068389   0.1934606   0.3555472  )

     number of k points=     1
                       cart. coord. in units 2pi/alat
        k(    1) = (   0.0000000   0.0000000   0.0000000), wk =   2.0000000

     Dense  grid:  4816379 G-vectors     FFT dimensions: ( 270, 270, 270)

     Estimated max dynamical RAM per process >     612.29 MB

     Estimated total dynamical RAM >      19.13 GB

     Check: negative core charge=   -0.000006

     Initial potential from superposition of free atoms

     starting charge     175.9995, renormalised to     176.0000

     negative rho (up, down):  3.696E-01 0.000E+00
     Starting wfcs are  132 randomized atomic wfcs
     Checking if some PAW data can be deallocated... 

     total cpu time spent up to now is        8.1 secs

     Self-consistent Calculation

     iteration #  1     ecut=    30.00 Ry     beta= 0.50
     Davidson diagonalization with overlap
     ethr =  1.00E-02,  avg # of iterations =  2.0

     negative rho (up, down):  4.369E-01 0.000E+00

     total cpu time spent up to now is       16.1 secs

     total energy              =    -965.68292998 Ry
     estimated scf accuracy    <       7.04620021 Ry

     iteration #  2     ecut=    30.00 Ry     beta= 0.50
     Davidson diagonalization with overlap
     ethr =  4.00E-03,  avg # of iterations =  2.0

     negative rho (up, down):  4.566E-01 0.000E+00

     total cpu time spent up to now is       24.5 secs

     total energy              =    -967.68737746 Ry
     estimated scf accuracy    <       1.08826446 Ry

     iteration #  3     ecut=    30.00 Ry     beta= 0.50
     Davidson diagonalization with overlap
     ethr =  6.18E-04,  avg # of iterations =  2.0

     negative rho (up, down):  5.031E-01 0.000E+00

     total cpu time spent up to now is       31.9 secs

     total energy              =    -967.74412027 Ry
     estimated scf accuracy    <       0.13700623 Ry

     iteration #  4     ecut=    30.00 Ry     beta= 0.50
     Davidson diagonalization with overlap
     ethr =  7.78E-05,  avg # of iterations =  3.0

     negative rho (up, down):  5.021E-01 0.000E+00

     total cpu time spent up to now is       40.6 secs

     total energy              =    -967.77001939 Ry
     estimated scf accuracy    <       0.04786965 Ry

     iteration #  5     ecut=    30.00 Ry     beta= 0.50
     Davidson diagonalization with overlap
     ethr =  2.72E-05,  avg # of iterations =  2.0

     negative rho (up, down):  5.012E-01 0.000E+00

     total cpu time spent up to now is       47.6 secs

     total energy              =    -967.77117365 Ry
     estimated scf accuracy    <       0.00858807 Ry

     iteration #  6     ecut=    30.00 Ry     beta= 0.50
     Davidson diagonalization with overlap
     ethr =  4.88E-06,  avg # of iterations =  2.0

     negative rho (up, down):  5.002E-01 0.000E+00

     total cpu time spent up to now is       54.6 secs

     total energy              =    -967.77106466 Ry
     estimated scf accuracy    <       0.00215869 Ry

     iteration #  7     ecut=    30.00 Ry     beta= 0.50
     Davidson diagonalization with overlap
     ethr =  1.23E-06,  avg # of iterations =  2.0

     negative rho (up, down):  4.999E-01 0.000E+00

     total cpu time spent up to now is       62.6 secs

     total energy              =    -967.77147527 Ry
     estimated scf accuracy    <       0.00005833 Ry

     iteration #  8     ecut=    30.00 Ry     beta= 0.50
     Davidson diagonalization with overlap
     ethr =  3.31E-08,  avg # of iterations =  3.0

     negative rho (up, down):  4.999E-01 0.000E+00

     total cpu time spent up to now is       71.8 secs

     total energy              =    -967.77150913 Ry
     estimated scf accuracy    <       0.00003422 Ry

     iteration #  9     ecut=    30.00 Ry     beta= 0.50
     Davidson diagonalization with overlap
     ethr =  1.94E-08,  avg # of iterations =  1.0

     negative rho (up, down):  5.000E-01 0.000E+00

     total cpu time spent up to now is       78.2 secs

     total energy              =    -967.77150376 Ry
     estimated scf accuracy    <       0.00001612 Ry

     iteration # 10     ecut=    30.00 Ry     beta= 0.50
     Davidson diagonalization with overlap
     ethr =  9.16E-09,  avg # of iterations =  2.0

     negative rho (up, down):  5.001E-01 0.000E+00

     total cpu time spent up to now is       86.0 secs

     End of self-consistent calculation

          k = 0.0000 0.0000 0.0000 (602235 PWs)   bands (ev):

   -25.9656 -25.7343 -25.7132 -25.4957 -25.3319 -25.2316 -25.1675 -24.8999
   -24.8536 -24.8010 -24.7656 -24.6101 -24.5942 -24.2746 -24.2320 -24.1994
   -24.1539 -24.0696 -23.8956 -23.8620 -23.7440 -23.2617 -13.7423 -13.5818
   -13.3517 -13.2628 -13.0568 -12.9973 -12.9757 -12.8222 -12.7834 -12.7672
   -12.6032 -12.5711 -12.5273 -12.4234 -12.3754 -12.2922 -12.2394 -11.8900
   -11.7901 -11.5684 -11.5151 -11.4134 -10.9224 -10.6626 -10.4579 -10.2561
   -10.2365 -10.1236  -9.8845  -9.7429  -9.6411  -9.4777  -9.4001  -9.3351
    -9.1184  -8.8944  -8.8118  -8.6592  -8.3894  -8.3225  -8.1369  -8.0806
    -7.9541  -7.9384  -7.7439  -7.7229  -7.6415  -7.4982  -7.4688  -7.3937
    -7.2668  -7.2013  -7.1626  -7.1459  -7.0804  -6.9505  -6.8490  -6.8292
    -6.8043  -6.7199  -6.6824  -6.5037  -6.3540  -6.3006  -6.2508  -5.9101

     highest occupied level (ev):    -5.9101

!    total energy              =    -967.77150586 Ry
     estimated scf accuracy    <       0.00000057 Ry

     The total energy is the sum of the following terms:
     one-electron contribution =   -5533.50739710 Ry
     hartree contribution      =    2802.84666901 Ry
     xc contribution           =    -193.34987224 Ry
     ewald contribution        =    2165.55700056 Ry
     one-center paw contrib.   =    -209.31790608 Ry

     convergence has been achieved in  10 iterations

     negative rho (up, down):  5.001E-01 0.000E+00

     Forces acting on atoms (cartesian axes, Ry/au):

     atom    1 type  1   force =     0.01409255    0.00819779    0.00399999
     atom    2 type  1   force =     0.06693725    0.00538545   -0.01535444
     atom    3 type  1   force =     0.02731081   -0.00042866    0.02025606
     atom    4 type  1   force =    -0.04080090   -0.01538289   -0.05586078
     atom    5 type  1   force =     0.01697018    0.02896913    0.03651119
     atom    6 type  1   force =    -0.04646327   -0.04402652   -0.01397500
     atom    7 type  1   force =     0.01367038   -0.01915252    0.02965588
     atom    8 type  1   force =    -0.06578205   -0.00688775   -0.06562120
     atom    9 type  1   force =    -0.00671970   -0.01828570    0.02332959
     atom   10 type  1   force =     0.01583692    0.01800588   -0.01120633
     atom   11 type  1   force =     0.02741884   -0.00273981   -0.03143456
     atom   12 type  1   force =    -0.05427004    0.03561038    0.02245035
     atom   13 type  1   force =     0.00410164   -0.01735949    0.00702921
     atom   14 type  1   force =     0.00196573   -0.07677176    0.01187112
     atom   15 type  1   force =     0.01698097   -0.00358406   -0.01115675
     atom   16 type  1   force =     0.04835786    0.03186190   -0.03479274
     atom   17 type  1   force =     0.01639946    0.00041259    0.02681343
     atom   18 type  1   force =     0.00368523   -0.04385669   -0.08808538
     atom   19 type  1   force =     0.04400442   -0.00451400   -0.01607433
     atom   20 type  1   force =     0.01430000    0.00157132    0.00417805
     atom   21 type  1   force =    -0.01291251    0.00511661   -0.01009184
     atom   22 type  1   force =    -0.02854951    0.05955392    0.00143749
     atom   23 type  1   force =    -0.01664182   -0.05035654   -0.00915772
     atom   24 type  1   force =     0.07090180   -0.04750265    0.08587890
     atom   25 type  1   force =     0.06190790   -0.02615325    0.00066322
     atom   26 type  1   force =    -0.02935114    0.02487588   -0.03875510
     atom   27 type  1   force =    -0.01262126   -0.02924107    0.00988535
     atom   28 type  1   force =    -0.01091813   -0.00505911   -0.00945840
     atom   29 type  1   force =    -0.00676536    0.04030410    0.02523139
     atom   30 type  1   force =     0.03977841    0.01274819   -0.01315427
     atom   31 type  1   force =    -0.05799773    0.03509311    0.01480271
     atom   32 type  1   force =    -0.03045482   -0.03702760   -0.05135616
     atom   33 type  1   force =    -0.02941202    0.04614537   -0.02083102
     atom   34 type  1   force =     0.06738666    0.01288904   -0.02423606
     atom   35 type  1   force =    -0.01208884   -0.00825727   -0.05097698
     atom   36 type  1   force =     0.01150438    0.00444297    0.08331705
     atom   37 type  1   force =    -0.02344748   -0.01748355   -0.02406624
     atom   38 type  1   force =    -0.09552363    0.00020342   -0.02069383
     atom   39 type  1   force =    -0.02685546   -0.03611018   -0.05288274
     atom   40 type  1   force =    -0.03336778    0.02786330    0.01395649
     atom   41 type  1   force =    -0.00975877    0.00586006   -0.00101202
     atom   42 type  1   force =     0.03022676   -0.02586032    0.00594917
     atom   43 type  1   force =    -0.00639584    0.01211986   -0.06721481
     atom   44 type  1   force =    -0.04339645    0.00505996    0.00670238
     atom   45 type  2   force =    -0.08264929   -0.02613329    0.02083529
     atom   46 type  2   force =     0.01661977    0.00379820    0.01587379
     atom   47 type  2   force =     0.04234410    0.01696396   -0.03347918
     atom   48 type  2   force =     0.05032275    0.03195998    0.05057927
     atom   49 type  2   force =    -0.01592398    0.00096880   -0.02076549
     atom   50 type  2   force =     0.02537673   -0.05391979    0.01644644
     atom   51 type  2   force =    -0.00526282    0.09964746   -0.01065960
     atom   52 type  2   force =    -0.06772196   -0.03035438    0.03633261
     atom   53 type  2   force =    -0.00463696    0.03958519    0.05590859
     atom   54 type  2   force =    -0.06310833    0.00694608    0.01172430
     atom   55 type  2   force =     0.03576540   -0.06319286    0.01098291
     atom   56 type  2   force =    -0.03854445    0.10609834   -0.07963770
     atom   57 type  2   force =    -0.04143179    0.01507621    0.02867908
     atom   58 type  2   force =     0.02218155    0.03829810   -0.00511967
     atom   59 type  2   force =    -0.03838357   -0.04337430   -0.00875734
     atom   60 type  2   force =     0.08077453    0.00697122    0.03428874
     atom   61 type  2   force =    -0.03948976   -0.07146426    0.04091393
     atom   62 type  2   force =     0.00144535   -0.00143004   -0.02794532
     atom   63 type  2   force =     0.10790158    0.03714509    0.04531675
     atom   64 type  2   force =     0.05446043    0.00789078    0.04388261
     atom   65 type  2   force =    -0.02115272    0.02141548   -0.00034189
     atom   66 type  2   force =     0.06786980   -0.02914484    0.07847157
     The non-local contrib.  to forces
     atom    1 type  1   force =    -0.01007865   -0.10922795    0.00064582
     atom    2 type  1   force =     0.08250050    0.01673828   -0.02089617
     atom    3 type  1   force =     0.03502260   -0.02968519    0.08455978
     atom    4 type  1   force =    -0.08357708   -0.00470341   -0.01218247
     atom    5 type  1   force =     0.02084601    0.06087324    0.07578041
     atom    6 type  1   force =    -0.08233076   -0.02444870    0.00760760
     atom    7 type  1   force =     0.00760024   -0.08470061    0.04503783
     atom    8 type  1   force =    -0.05153746   -0.01078153   -0.05214380
     atom    9 type  1   force =     0.07901460    0.06763319    0.01880416
     atom   10 type  1   force =    -0.01440823   -0.04998561    0.10063939
     atom   11 type  1   force =     0.03728455    0.02710606   -0.07740987
     atom   12 type  1   force =    -0.06319207    0.06084125    0.02499085
     atom   13 type  1   force =    -0.05292953    0.00485861   -0.09734648
     atom   14 type  1   force =     0.00519495   -0.08170621    0.00718828
     atom   15 type  1   force =     0.00833617   -0.08139456   -0.06798410
     atom   16 type  1   force =     0.06061487    0.04190785   -0.02075649
     atom   17 type  1   force =     0.04928802   -0.02329006    0.04619995
     atom   18 type  1   force =     0.00774662   -0.03783457   -0.07731321
     atom   19 type  1   force =     0.08549732   -0.02829410   -0.01878744
     atom   20 type  1   force =     0.02477804    0.07494905    0.07236981
     atom   21 type  1   force =    -0.04472499   -0.02206463    0.08726165
     atom   22 type  1   force =    -0.03486933    0.08020042   -0.01218458
     atom   23 type  1   force =     0.01657389    0.10181805   -0.04107235
     atom   24 type  1   force =     0.05218483   -0.02665455    0.05847890
     atom   25 type  1   force =     0.07000105   -0.04136901   -0.01649821
     atom   26 type  1   force =    -0.03963284    0.04376092   -0.07887630
     atom   27 type  1   force =    -0.04431680   -0.06031973    0.04856883
     atom   28 type  1   force =     0.08521336    0.05072158    0.05668022
     atom   29 type  1   force =     0.00222835    0.04750978    0.07504230
     atom   30 type  1   force =     0.08758829    0.01861364   -0.04451181
     atom   31 type  1   force =    -0.06520490    0.05950307    0.02635014
     atom   32 type  1   force =    -0.03073018   -0.03089076   -0.04141212
     atom   33 type  1   force =    -0.03682864    0.07060740   -0.00855357
     atom   34 type  1   force =     0.08570203    0.01282382   -0.03131170
     atom   35 type  1   force =     0.02417905   -0.03519903   -0.09010803
     atom   36 type  1   force =     0.03893842   -0.01492254    0.06907426
     atom   37 type  1   force =    -0.00744816   -0.08196861   -0.05082709
     atom   38 type  1   force =    -0.06553985    0.01133014    0.00244612
     atom   39 type  1   force =    -0.03445945   -0.03449693   -0.06540910
     atom   40 type  1   force =    -0.06955284    0.05781352    0.04051554
     atom   41 type  1   force =    -0.10546341   -0.01406049   -0.02493105
     atom   42 type  1   force =     0.04939597   -0.07379538   -0.01269717
     atom   43 type  1   force =    -0.00915192    0.01953350   -0.08303120
     atom   44 type  1   force =    -0.09348317   -0.00578752    0.03401905
     atom   45 type  2   force =    -1.41270470    1.34990008    0.38293764
     atom   46 type  2   force =     0.87251420    0.64763559   -1.04433927
     atom   47 type  2   force =     1.16926185   -0.61117023   -1.50183028
     atom   48 type  2   force =     0.81483692    1.68734516    0.37828627
     atom   49 type  2   force =    -0.85695380   -0.32230601   -1.93983399
     atom   50 type  2   force =     0.62745102   -1.52434369    0.96725249
     atom   51 type  2   force =     0.73072549    1.43634413    1.32066449
     atom   52 type  2   force =    -1.19396217    0.45434303    1.60393581
     atom   53 type  2   force =    -1.13347420    1.23262882    0.72555918
     atom   54 type  2   force =    -1.85651596   -0.72743067   -0.78035901
     atom   55 type  2   force =     1.24710754   -0.96934459   -0.99555323
     atom   56 type  2   force =    -1.48940459   -0.97314289   -0.74881650
     atom   57 type  2   force =    -0.72051289   -0.07268289    1.88454762
     atom   58 type  2   force =    -0.34868269    0.11098757   -1.73120978
     atom   59 type  2   force =    -1.48239850   -1.16242561   -0.45307302
     atom   60 type  2   force =     1.80903274   -0.52879597    0.52008629
     atom   61 type  2   force =    -1.00273262   -1.67937992    0.68276198
     atom   62 type  2   force =    -1.51161020    1.02959420    0.25984438
     atom   63 type  2   force =     1.30512969    1.12825627    0.55132253
     atom   64 type  2   force =     2.01178484   -0.33403546    0.52269332
     atom   65 type  2   force =     0.92512337    1.61194659    0.51885153
     atom   66 type  2   force =     1.80021766   -0.10659633    1.03350642
     The ionic contribution  to forces
     atom    1 type  1   force =     1.41063621    2.68500186    1.52015785
     atom    2 type  1   force =    -1.66808981   -1.20079367    2.04173530
     atom    3 type  1   force =    -1.52277156    1.73205045   -2.76270606
     atom    4 type  1   force =     2.31363598    0.87843061    0.55207817
     atom    5 type  1   force =    -1.62348394   -3.27727301   -4.20970952
     atom    6 type  1   force =     1.85925624    0.03266526   -1.54678284
     atom    7 type  1   force =     1.15812730    2.99804882   -2.83406823
     atom    8 type  1   force =     3.55298509    0.71909923    0.91252263
     atom    9 type  1   force =    -2.21246944   -0.23735791   -2.22882314
     atom   10 type  1   force =     0.76013093    3.12891083   -4.63671123
     atom   11 type  1   force =    -3.15280578   -0.42719230    1.49343669
     atom   12 type  1   force =     0.77517300   -1.89304014   -2.32027947
     atom   13 type  1   force =     1.95215881   -1.85244435    4.61704083
     atom   14 type  1   force =    -0.22473130    0.89422041    0.77830035
     atom   15 type  1   force =     0.20611730    4.48523936    3.54562440
     atom   16 type  1   force =    -1.52153365    0.53122195    2.49328706
     atom   17 type  1   force =    -1.80720146   -0.02659988    0.57554997
     atom   18 type  1   force =    -0.54493241    1.03148666    5.14572091
     atom   19 type  1   force =    -3.27198088    2.41833983   -0.00191406
     atom   20 type  1   force =    -0.91671306   -1.86261389   -4.17280699
     atom   21 type  1   force =     0.23618813   -0.75224041   -2.52032305
     atom   22 type  1   force =    -0.51160277   -4.08204141    0.72762760
     atom   23 type  1   force =    -2.43807478   -1.43406079    0.28755806
     atom   24 type  1   force =    -3.26462915    1.95046397   -3.16011886
     atom   25 type  1   force =    -0.44595443   -0.14666772    1.50563357
     atom   26 type  1   force =     2.80533558   -2.49035285    3.52419179
     atom   27 type  1   force =    -0.10131622    1.77462160   -0.89140037
     atom   28 type  1   force =    -3.52443057   -1.40537827   -0.72598209
     atom   29 type  1   force =    -0.85887779   -0.19797755   -0.42974585
     atom   30 type  1   force =    -3.97743073    0.57849954    3.39271283
     atom   31 type  1   force =     2.68147312   -3.40246394   -2.77658537
     atom   32 type  1   force =     0.96582287    0.23677469   -0.56167931
     atom   33 type  1   force =    -1.25207780   -2.65076848    1.16224482
     atom   34 type  1   force =    -5.10486850   -0.55388372    1.76151543
     atom   35 type  1   force =    -0.12661699    3.53417390    2.53143827
     atom   36 type  1   force =     0.01726120    2.43098946   -2.60355470
     atom   37 type  1   force =     0.83990596    1.84582892    0.51896010
     atom   38 type  1   force =     2.84144514   -0.91759591   -1.34686793
     atom   39 type  1   force =     0.87533801   -1.15237218    2.06653953
     atom   40 type  1   force =     2.41353880   -3.97400630   -1.68910950
     atom   41 type  1   force =     5.45673337    1.17685497    1.76156033
     atom   42 type  1   force =     0.49867082    3.15815570    1.60533501
     atom   43 type  1   force =     2.06152340   -1.71890901    1.92861757
     atom   44 type  1   force =     4.87318803   -0.34051574   -2.16179846
     atom   45 type  2   force =     8.61485632   -6.06431403    7.64470814
     atom   46 type  2   force =    -4.75871420    3.90745908    1.00048924
     atom   47 type  2   force =    -6.95169761   -5.47412848   -7.51936080
     atom   48 type  2   force =     7.37488667   -0.31725727   -6.22419701
     atom   49 type  2   force =     2.29816541   11.38660698   -5.53525876
     atom   50 type  2   force =   -10.58837428    2.38058873   -8.18395797
     atom   51 type  2   force =    -0.04207699  -12.29012784    5.82643902
     atom   52 type  2   force =     5.30113534   11.35374925    6.05947166
     atom   53 type  2   force =     1.46200340   -5.24151315   12.07974581
     atom   54 type  2   force =    -0.19296819    6.88559165   -7.04039697
     atom   55 type  2   force =   -10.69764953   -7.61448865    4.05818558
     atom   56 type  2   force =    -7.12003173   10.40769047   -4.86732736
     atom   57 type  2   force =    11.83099556   -6.88096741    1.45747209
     atom   58 type  2   force =    -7.62189187    0.31058996    8.97333468
     atom   59 type  2   force =    -3.10676508    9.11853488   12.38886219
     atom   60 type  2   force =    -1.06748740   -5.30468662  -12.94495359
     atom   61 type  2   force =   -12.39433640    2.59902674    3.55239978
     atom   62 type  2   force =     9.55187830   10.67073949   -3.34522838
     atom   63 type  2   force =     2.35130780   -6.06863183   -6.75414165
     atom   64 type  2   force =    -4.64599372  -12.72505395   -1.84900248
     atom   65 type  2   force =    11.19757016    1.89520633    6.40549016
     atom   66 type  2   force =     8.72313577   -5.15914293   -8.05119543
     The local contribution  to forces
     atom    1 type  1   force =    -1.38648741   -2.56758426   -1.51679767
     atom    2 type  1   force =     1.65250187    1.18943079   -2.03618389
     atom    3 type  1   force =     1.51503503   -1.70280453    2.69837171
     atom    4 type  1   force =    -2.27084680   -0.88911797   -0.59575318
     atom    5 type  1   force =     1.61959720    3.24534756    4.17044514
     atom    6 type  1   force =    -1.82341565   -0.05227271    1.52520117
     atom    7 type  1   force =    -1.15207423   -2.93248461    2.81868109
     atom    8 type  1   force =    -3.56722314   -0.71520989   -0.92597708
     atom    9 type  1   force =     2.12671224    0.15141384    2.23333964
     atom   10 type  1   force =    -0.72990797   -3.06094237    4.52485363
     atom   11 type  1   force =     3.14291340    0.39730033   -1.44742666
     atom   12 type  1   force =    -0.76623836    1.86775043    2.31774101
     atom   13 type  1   force =    -1.89513298    1.83020904   -4.51263675
     atom   14 type  1   force =     0.22148775   -0.88929590   -0.77360336
     atom   15 type  1   force =    -0.19749325   -4.40744700   -3.48878653
     atom   16 type  1   force =     1.50925860   -0.54128390   -2.50731175
     atom   17 type  1   force =     1.77429116    0.05027857   -0.59492686
     atom   18 type  1   force =     0.54084934   -1.03752086   -5.15646498
     atom   19 type  1   force =     3.23045613   -2.39458571    0.00462734
     atom   20 type  1   force =     0.90620541    1.78920401    4.10460874
     atom   21 type  1   force =    -0.20435944    0.77939641    2.42291620
     atom   22 type  1   force =     0.51793156    4.06132733   -0.71401603
     atom   23 type  1   force =     2.40483819    1.28186572   -0.25563856
     atom   24 type  1   force =     3.28331340   -1.97133320    3.18750669
     atom   25 type  1   force =     0.43779617    0.16188653   -1.48844236
     atom   26 type  1   force =    -2.79504934    2.47141664   -3.48400493
     atom   27 type  1   force =     0.13299247   -1.74355509    0.85269507
     atom   28 type  1   force =     3.42825861    1.34956907    0.65981770
     atom   29 type  1   force =     0.84986188    0.19075262    0.37994403
     atom   30 type  1   force =     3.92959266   -0.58438973   -3.36135088
     atom   31 type  1   force =    -2.67427787    3.37802129    2.76503584
     atom   32 type  1   force =    -0.96559246   -0.24294501    0.55170750
     atom   33 type  1   force =     1.25945917    2.62629311   -1.17451659
     atom   34 type  1   force =     5.08652074    0.55391985   -1.75443459
     atom   35 type  1   force =     0.09032530   -3.50724919   -2.49229157
     atom   36 type  1   force =    -0.04471833   -2.41164708    2.61779547
     atom   37 type  1   force =    -0.85589948   -1.78131476   -0.49216467
     atom   38 type  1   force =    -2.87137712    0.90645543    1.32373592
     atom   39 type  1   force =    -0.86774005    1.15073182   -2.05401030
     atom   40 type  1   force =    -2.37735061    3.94402218    1.66254758
     atom   41 type  1   force =    -5.36103922   -1.15694481   -1.73763600
     atom   42 type  1   force =    -0.51785114   -3.11023161   -1.58668513
     atom   43 type  1   force =    -2.05878458    1.71147722   -1.91281111
     atom   44 type  1   force =    -4.82310940    0.35134327    2.13448538
     atom   45 type  2   force =    -7.29862025    4.70101399   -8.00275127
     atom   46 type  2   force =     3.91132768   -4.54448635    0.04905261
     atom   47 type  2   force =     5.83664496    6.09576659    8.97202674
     atom   48 type  2   force =    -8.13104162   -1.32131774    5.90089298
     atom   49 type  2   force =    -1.46514286  -11.06642266    7.43467999
     atom   50 type  2   force =     9.99289328   -0.92581200    7.24313138
     atom   51 type  2   force =    -0.68610771   10.96689020   -7.14451623
     atom   52 type  2   force =    -4.18706147  -11.83330798   -7.60970134
     atom   53 type  2   force =    -0.34477833    4.06055879  -12.74062470
     atom   54 type  2   force =     1.96800004   -6.15845201    7.82414787
     atom   55 type  2   force =     9.49849222    8.51071823   -3.06048768
     atom   56 type  2   force =     8.55418201   -9.33675897    5.52768894
     atom   57 type  2   force =   -11.15857074    6.96767637   -3.29331558
     atom   58 type  2   force =     7.98973559   -0.38149932   -7.26423464
     atom   59 type  2   force =     4.53546928   -8.01073660  -11.94932881
     atom   60 type  2   force =    -0.64213645    5.83455222   12.46347018
     atom   61 type  2   force =    13.34650204   -1.00796635   -4.18723253
     atom   62 type  2   force =    -8.05429926  -11.69005668    3.06012873
     atom   63 type  2   force =    -3.53561250    4.98852815    6.25338450
     atom   64 type  2   force =     2.70985112   13.06315559    1.37538686
     atom   65 type  2   force =   -12.13415467   -3.46929858   -6.91913216
     atom   66 type  2   force =   -10.43623266    5.23555389    7.10638556
     The core correction contribution to forces
     atom    1 type  1   force =     0.00000000    0.00000000    0.00000000
     atom    2 type  1   force =     0.00000000    0.00000000    0.00000000
     atom    3 type  1   force =     0.00000000    0.00000000    0.00000000
     atom    4 type  1   force =     0.00000000    0.00000000    0.00000000
     atom    5 type  1   force =     0.00000000    0.00000000    0.00000000
     atom    6 type  1   force =     0.00000000    0.00000000    0.00000000
     atom    7 type  1   force =     0.00000000    0.00000000    0.00000000
     atom    8 type  1   force =     0.00000000    0.00000000    0.00000000
     atom    9 type  1   force =     0.00000000    0.00000000    0.00000000
     atom   10 type  1   force =     0.00000000    0.00000000    0.00000000
     atom   11 type  1   force =     0.00000000    0.00000000    0.00000000
     atom   12 type  1   force =     0.00000000    0.00000000    0.00000000
     atom   13 type  1   force =     0.00000000    0.00000000    0.00000000
     atom   14 type  1   force =     0.00000000    0.00000000    0.00000000
     atom   15 type  1   force =     0.00000000    0.00000000    0.00000000
     atom   16 type  1   force =     0.00000000    0.00000000    0.00000000
     atom   17 type  1   force =     0.00000000    0.00000000    0.00000000
     atom   18 type  1   force =     0.00000000    0.00000000    0.00000000
     atom   19 type  1   force =     0.00000000    0.00000000    0.00000000
     atom   20 type  1   force =     0.00000000    0.00000000    0.00000000
     atom   21 type  1   force =     0.00000000    0.00000000    0.00000000
     atom   22 type  1   force =     0.00000000    0.00000000    0.00000000
     atom   23 type  1   force =     0.00000000    0.00000000    0.00000000
     atom   24 type  1   force =     0.00000000    0.00000000    0.00000000
     atom   25 type  1   force =     0.00000000    0.00000000    0.00000000
     atom   26 type  1   force =     0.00000000    0.00000000    0.00000000
     atom   27 type  1   force =     0.00000000    0.00000000    0.00000000
     atom   28 type  1   force =     0.00000000    0.00000000    0.00000000
     atom   29 type  1   force =     0.00000000    0.00000000    0.00000000
     atom   30 type  1   force =     0.00000000    0.00000000    0.00000000
     atom   31 type  1   force =     0.00000000    0.00000000    0.00000000
     atom   32 type  1   force =     0.00000000    0.00000000    0.00000000
     atom   33 type  1   force =     0.00000000    0.00000000    0.00000000
     atom   34 type  1   force =     0.00000000    0.00000000    0.00000000
     atom   35 type  1   force =     0.00000000    0.00000000    0.00000000
     atom   36 type  1   force =     0.00000000    0.00000000    0.00000000
     atom   37 type  1   force =     0.00000000    0.00000000    0.00000000
     atom   38 type  1   force =     0.00000000    0.00000000    0.00000000
     atom   39 type  1   force =     0.00000000    0.00000000    0.00000000
     atom   40 type  1   force =     0.00000000    0.00000000    0.00000000
     atom   41 type  1   force =     0.00000000    0.00000000    0.00000000
     atom   42 type  1   force =     0.00000000    0.00000000    0.00000000
     atom   43 type  1   force =     0.00000000    0.00000000    0.00000000
     atom   44 type  1   force =     0.00000000    0.00000000    0.00000000
     atom   45 type  2   force =     0.01374966   -0.01253387   -0.00400726
     atom   46 type  2   force =    -0.00845340   -0.00675557    0.01051631
     atom   47 type  2   force =    -0.01179371    0.00641820    0.01561130
     atom   48 type  2   force =    -0.00828798   -0.01662063   -0.00436673
     atom   49 type  2   force =     0.00791805    0.00302654    0.01952136
     atom   50 type  2   force =    -0.00652477    0.01540699   -0.00984351
     atom   51 type  2   force =    -0.00770924   -0.01340744   -0.01302728
     atom   52 type  2   force =     0.01211016   -0.00506606   -0.01722303
     atom   53 type  2   force =     0.01149995   -0.01201856   -0.00861580
     atom   54 type  2   force =     0.01820561    0.00711816    0.00824885
     atom   55 type  2   force =    -0.01200583    0.00972951    0.00859823
     atom   56 type  2   force =     0.01666509    0.00817213    0.00882812
     atom   57 type  2   force =     0.00665457    0.00097712   -0.01977337
     atom   58 type  2   force =     0.00291025   -0.00178815    0.01678388
     atom   59 type  2   force =     0.01516447    0.01116570    0.00475845
     atom   60 type  2   force =    -0.01857619    0.00583460   -0.00429749
     atom   61 type  2   force =     0.01092014    0.01674578   -0.00699753
     atom   62 type  2   force =     0.01538920   -0.01169268   -0.00267178
     atom   63 type  2   force =    -0.01268121   -0.01080169   -0.00511671
     atom   64 type  2   force =    -0.02101051    0.00375490   -0.00520173
     atom   65 type  2   force =    -0.00960706   -0.01629601   -0.00551001
     atom   66 type  2   force =    -0.01921803    0.00105997   -0.01016419
     The Hubbard contrib.    to forces
     atom    1 type  1   force =     0.00000000    0.00000000    0.00000000
     atom    2 type  1   force =     0.00000000    0.00000000    0.00000000
     atom    3 type  1   force =     0.00000000    0.00000000    0.00000000
     atom    4 type  1   force =     0.00000000    0.00000000    0.00000000
     atom    5 type  1   force =     0.00000000    0.00000000    0.00000000
     atom    6 type  1   force =     0.00000000    0.00000000    0.00000000
     atom    7 type  1   force =     0.00000000    0.00000000    0.00000000
     atom    8 type  1   force =     0.00000000    0.00000000    0.00000000
     atom    9 type  1   force =     0.00000000    0.00000000    0.00000000
     atom   10 type  1   force =     0.00000000    0.00000000    0.00000000
     atom   11 type  1   force =     0.00000000    0.00000000    0.00000000
     atom   12 type  1   force =     0.00000000    0.00000000    0.00000000
     atom   13 type  1   force =     0.00000000    0.00000000    0.00000000
     atom   14 type  1   force =     0.00000000    0.00000000    0.00000000
     atom   15 type  1   force =     0.00000000    0.00000000    0.00000000
     atom   16 type  1   force =     0.00000000    0.00000000    0.00000000
     atom   17 type  1   force =     0.00000000    0.00000000    0.00000000
     atom   18 type  1   force =     0.00000000    0.00000000    0.00000000
     atom   19 type  1   force =     0.00000000    0.00000000    0.00000000
     atom   20 type  1   force =     0.00000000    0.00000000    0.00000000
     atom   21 type  1   force =     0.00000000    0.00000000    0.00000000
     atom   22 type  1   force =     0.00000000    0.00000000    0.00000000
     atom   23 type  1   force =     0.00000000    0.00000000    0.00000000
     atom   24 type  1   force =     0.00000000    0.00000000    0.00000000
     atom   25 type  1   force =     0.00000000    0.00000000    0.00000000
     atom   26 type  1   force =     0.00000000    0.00000000    0.00000000
     atom   27 type  1   force =     0.00000000    0.00000000    0.00000000
     atom   28 type  1   force =     0.00000000    0.00000000    0.00000000
     atom   29 type  1   force =     0.00000000    0.00000000    0.00000000
     atom   30 type  1   force =     0.00000000    0.00000000    0.00000000
     atom   31 type  1   force =     0.00000000    0.00000000    0.00000000
     atom   32 type  1   force =     0.00000000    0.00000000    0.00000000
     atom   33 type  1   force =     0.00000000    0.00000000    0.00000000
     atom   34 type  1   force =     0.00000000    0.00000000    0.00000000
     atom   35 type  1   force =     0.00000000    0.00000000    0.00000000
     atom   36 type  1   force =     0.00000000    0.00000000    0.00000000
     atom   37 type  1   force =     0.00000000    0.00000000    0.00000000
     atom   38 type  1   force =     0.00000000    0.00000000    0.00000000
     atom   39 type  1   force =     0.00000000    0.00000000    0.00000000
     atom   40 type  1   force =     0.00000000    0.00000000    0.00000000
     atom   41 type  1   force =     0.00000000    0.00000000    0.00000000
     atom   42 type  1   force =     0.00000000    0.00000000    0.00000000
     atom   43 type  1   force =     0.00000000    0.00000000    0.00000000
     atom   44 type  1   force =     0.00000000    0.00000000    0.00000000
     atom   45 type  2   force =     0.00000000    0.00000000    0.00000000
     atom   46 type  2   force =     0.00000000    0.00000000    0.00000000
     atom   47 type  2   force =     0.00000000    0.00000000    0.00000000
     atom   48 type  2   force =     0.00000000    0.00000000    0.00000000
     atom   49 type  2   force =     0.00000000    0.00000000    0.00000000
     atom   50 type  2   force =     0.00000000    0.00000000    0.00000000
     atom   51 type  2   force =     0.00000000    0.00000000    0.00000000
     atom   52 type  2   force =     0.00000000    0.00000000    0.00000000
     atom   53 type  2   force =     0.00000000    0.00000000    0.00000000
     atom   54 type  2   force =     0.00000000    0.00000000    0.00000000
     atom   55 type  2   force =     0.00000000    0.00000000    0.00000000
     atom   56 type  2   force =     0.00000000    0.00000000    0.00000000
     atom   57 type  2   force =     0.00000000    0.00000000    0.00000000
     atom   58 type  2   force =     0.00000000    0.00000000    0.00000000
     atom   59 type  2   force =     0.00000000    0.00000000    0.00000000
     atom   60 type  2   force =     0.00000000    0.00000000    0.00000000
     atom   61 type  2   force =     0.00000000    0.00000000    0.00000000
     atom   62 type  2   force =     0.00000000    0.00000000    0.00000000
     atom   63 type  2   force =     0.00000000    0.00000000    0.00000000
     atom   64 type  2   force =     0.00000000    0.00000000    0.00000000
     atom   65 type  2   force =     0.00000000    0.00000000    0.00000000
     atom   66 type  2   force =     0.00000000    0.00000000    0.00000000
     The SCF correction term to forces
     atom    1 type  1   force =     0.00000404   -0.00001444   -0.00000308
     atom    2 type  1   force =     0.00000634   -0.00001253   -0.00000675
     atom    3 type  1   force =     0.00000638   -0.00001196    0.00003356
     atom    4 type  1   force =    -0.00003134   -0.00001469   -0.00000036
     atom    5 type  1   force =    -0.00000744   -0.00000123   -0.00000190
     atom    6 type  1   force =     0.00000854    0.00000706    0.00000202
     atom    7 type  1   force =    -0.00000127   -0.00003870    0.00000813
     atom    8 type  1   force =    -0.00002489   -0.00001814   -0.00002001
     atom    9 type  1   force =     0.00000454    0.00000261    0.00001187
     atom   10 type  1   force =     0.00000384    0.00000045    0.00001481
     atom   11 type  1   force =     0.00000832    0.00002353   -0.00003178
     atom   12 type  1   force =    -0.00003096    0.00003626    0.00000090
     atom   13 type  1   force =    -0.00001302   -0.00000535   -0.00002545
     atom   14 type  1   force =    -0.00000402   -0.00001263   -0.00001122
     atom   15 type  1   force =     0.00000239   -0.00000443   -0.00000759
     atom   16 type  1   force =    -0.00000031   -0.00000657   -0.00000863
     atom   17 type  1   force =     0.00000338    0.00000138   -0.00000670
     atom   18 type  1   force =     0.00000332   -0.00001049   -0.00002518
     atom   19 type  1   force =     0.00001350    0.00000340    0.00000276
     atom   20 type  1   force =     0.00001126    0.00000957    0.00000942
     atom   21 type  1   force =    -0.00003456    0.00000266    0.00005629
     atom   22 type  1   force =    -0.00002732    0.00004500    0.00001344
     atom   23 type  1   force =     0.00000253   -0.00000210   -0.00000194
     atom   24 type  1   force =     0.00001437   -0.00000144    0.00001511
     atom   25 type  1   force =     0.00004676   -0.00002563   -0.00002685
     atom   26 type  1   force =    -0.00002289    0.00002859   -0.00006274
     atom   27 type  1   force =     0.00000094   -0.00001042    0.00002475
     atom   28 type  1   force =     0.00002212    0.00000593    0.00002870
     atom   29 type  1   force =     0.00000385   -0.00000333   -0.00000617
     atom   30 type  1   force =     0.00000983    0.00000217   -0.00000147
     atom   31 type  1   force =    -0.00000644    0.00001011    0.00000505
     atom   32 type  1   force =     0.00002660    0.00001089    0.00003070
     atom   33 type  1   force =     0.00001690   -0.00000923   -0.00000275
     atom   34 type  1   force =     0.00001404    0.00000652   -0.00000227
     atom   35 type  1   force =     0.00000545   -0.00000552   -0.00001271
     atom   36 type  1   force =     0.00000474    0.00000055    0.00000495
     atom   37 type  1   force =    -0.00002415   -0.00005167   -0.00003164
     atom   38 type  1   force =    -0.00007015   -0.00000881   -0.00000501
     atom   39 type  1   force =    -0.00001232    0.00000455    0.00000006
     atom   40 type  1   force =    -0.00002148    0.00001133    0.00000580
     atom   41 type  1   force =    -0.00000787   -0.00001218   -0.00000236
     atom   42 type  1   force =    -0.00000725   -0.00001160   -0.00000060
     atom   43 type  1   force =    -0.00000109   -0.00000442    0.00001286
     atom   44 type  1   force =    -0.00001026   -0.00000263   -0.00000066
     atom   45 type  2   force =     0.00005132   -0.00022203   -0.00004902
     atom   46 type  2   force =    -0.00007286   -0.00007712    0.00015782
     atom   47 type  2   force =    -0.00008974    0.00005531    0.00007680
     atom   48 type  2   force =    -0.00008959   -0.00021210   -0.00003331
     atom   49 type  2   force =     0.00007086    0.00004137    0.00012884
     atom   50 type  2   force =    -0.00008687    0.00021760   -0.00013302
     atom   51 type  2   force =    -0.00011273   -0.00007416   -0.00021666
     atom   52 type  2   force =     0.00003782   -0.00009519   -0.00014756
     atom   53 type  2   force =     0.00009386   -0.00009328   -0.00015297
     atom   54 type  2   force =     0.00015182    0.00009638    0.00008650
     atom   55 type  2   force =    -0.00019735    0.00017006    0.00024294
     atom   56 type  2   force =     0.00002642    0.00011502   -0.00000797
     atom   57 type  2   force =    -0.00001664    0.00005044   -0.00024875
     atom   58 type  2   force =     0.00009192   -0.00001453    0.00020913
     atom   59 type  2   force =     0.00012790    0.00006476    0.00002678
     atom   60 type  2   force =    -0.00007652    0.00004441   -0.00001373
     atom   61 type  2   force =     0.00013872    0.00008691   -0.00001485
     atom   62 type  2   force =     0.00006895   -0.00003694   -0.00001534
     atom   63 type  2   force =    -0.00026055   -0.00022837   -0.00012899
     atom   64 type  2   force =    -0.00018966    0.00004713    0.00000957
     atom   65 type  2   force =    -0.00010287   -0.00016543   -0.00003847
     atom   66 type  2   force =    -0.00005129   -0.00004202   -0.00005786

     Total force =     0.529929     Total SCF correction =     0.001012


     Computing stress (Cartesian axis) and pressure


     negative rho (up, down):  5.001E-01 0.000E+00
          total   stress  (Ry/bohr**3)                   (kbar)     P=       -2.97
  -0.00002106   0.00000064  -0.00000034           -3.10        0.09       -0.05
   0.00000064  -0.00001931  -0.00000049            0.09       -2.84       -0.07
  -0.00000034  -0.00000049  -0.00002027           -0.05       -0.07       -2.98


     init_run     :      7.52s CPU      7.91s WALL (       1 calls)
     electrons    :     73.22s CPU     77.91s WALL (       1 calls)
     forces       :      5.54s CPU      5.80s WALL (       1 calls)
     stress       :     16.70s CPU     17.32s WALL (       1 calls)

     Called by init_run:
     wfcinit      :      2.77s CPU      2.93s WALL (       1 calls)
     potinit      :      1.28s CPU      1.34s WALL (       1 calls)
     hinit0       :      1.00s CPU      1.06s WALL (       1 calls)

     Called by electrons:
     c_bands      :     49.10s CPU     51.43s WALL (      10 calls)
     sum_band     :     13.59s CPU     14.67s WALL (      10 calls)
     v_of_rho     :      6.41s CPU      6.91s WALL (      11 calls)
     newd         :      2.84s CPU      3.67s WALL (      11 calls)
     PAW_pot      :      1.02s CPU      1.03s WALL (      11 calls)
     mix_rho      :      1.00s CPU      1.07s WALL (      10 calls)

     Called by c_bands:
     init_us_2    :      0.66s CPU      0.68s WALL (      21 calls)
     init_us_2:cp :      0.66s CPU      0.68s WALL (      21 calls)
     regterg      :     48.20s CPU     50.53s WALL (      10 calls)

     Called by *egterg:
     rdiaghg      :      0.23s CPU      0.23s WALL (      31 calls)
     h_psi        :     43.29s CPU     45.25s WALL (      32 calls)
     s_psi        :      1.38s CPU      1.39s WALL (      32 calls)
     g_psi        :      0.14s CPU      0.14s WALL (      21 calls)

     Called by h_psi:
     h_psi:calbec :      1.35s CPU      1.36s WALL (      32 calls)
     vloc_psi     :     40.19s CPU     42.13s WALL (      32 calls)
     add_vuspsi   :      1.38s CPU      1.39s WALL (      32 calls)

     General routines
     calbec       :      2.02s CPU      2.04s WALL (      47 calls)
     fft          :      3.54s CPU      4.03s WALL (     119 calls)
     ffts         :      0.24s CPU      0.27s WALL (      10 calls)
     fftw         :     35.34s CPU     37.54s WALL (    2914 calls)

     Parallel routines

     PWSCF        :   1m43.16s CPU   1m49.20s WALL


   This run was terminated on:   0:33:33  28Mar2024            

=------------------------------------------------------------------------------=
   JOB DONE.
=------------------------------------------------------------------------------=
