
     Program PWSCF v.7.2 starts on 27Mar2024 at 11:16:18 

     This program is part of the open-source Quantum ESPRESSO suite
     for quantum simulation of materials; please cite
         "P. Giannozzi et al., J. Phys.:Condens. Matter 21 395502 (2009);
         "P. Giannozzi et al., J. Phys.:Condens. Matter 29 465901 (2017);
         "P. Giannozzi et al., J. Chem. Phys. 152 154105 (2020);
          URL http://www.quantum-espresso.org", 
     in publications or presentations arising from this work. More details at
     http://www.quantum-espresso.org/quote

     Parallel version (MPI), running on    32 processors

     MPI processes distributed on     1 nodes
     170101 MiB available memory on the printing compute node when the environment starts

     Reading input from pw-wt-257.in
Warning: card &CELL ignored
Warning: card / ignored

     Current dimensions of program PWSCF are:
     Max number of different atomic species (ntypx) = 10
     Max number of k-points (npk) =  40000
     Max angular momentum in pseudopotentials (lmaxx) =  4
     file O.pbe-n-kjpaw_psl.0.1.UPF: wavefunction(s)  2P renormalized

     IMPORTANT: XC functional enforced from input :
     Exchange-correlation= PBE
                           (   1   4   3   4   0   0   0)
     Any further DFT definition will be discarded
     Please, verify this is what you really want


     gamma-point specific algorithms are used

     R & G space division:  proc/nbgrp/npool/nimage =      32
     Subspace diagonalization in iterative solution of the eigenvalue problem:
     a serial algorithm will be used


     Parallelization info
     --------------------
     sticks:   dense  smooth     PW     G-vecs:    dense   smooth      PW
     Min        1707    1707    426               301015   301015   37634
     Max        1710    1710    428               301034   301034   37648
     Sum       54693   54693  13673              9632757  9632757 1204469

     Using Slab Decomposition



     bravais-lattice index     =            0
     lattice parameter (alat)  =      75.7119  a.u.
     unit-cell volume          =  434002.3113 (a.u.)^3
     number of atoms/cell      =           66
     number of atomic types    =            2
     number of electrons       =       176.00
     number of Kohn-Sham states=           88
     kinetic-energy cutoff     =      30.0000  Ry
     charge density cutoff     =     120.0000  Ry
     scf convergence threshold =      1.0E-06
     mixing beta               =       0.5000
     number of iterations used =            8  plain     mixing
     Exchange-correlation= PBE
                           (   1   4   3   4   0   0   0)

     celldm(1)=  75.711877  celldm(2)=   0.000000  celldm(3)=   0.000000
     celldm(4)=   0.000000  celldm(5)=   0.000000  celldm(6)=   0.000000

     crystal axes: (cart. coord. in units of alat)
               a(1) = (   1.000000   0.000000   0.000000 )  
               a(2) = (   0.000000   1.000000   0.000000 )  
               a(3) = (   0.000000   0.000000   1.000000 )  

     reciprocal axes: (cart. coord. in units 2 pi/alat)
               b(1) = (  1.000000  0.000000  0.000000 )  
               b(2) = (  0.000000  1.000000  0.000000 )  
               b(3) = (  0.000000  0.000000  1.000000 )  


     PseudoPot. # 1 for H  read from file:
     /share/pfaendtnergroup/rverma7/QE_PP/H.pbe-rrkjus_psl.1.0.0.UPF
     MD5 check sum: f52b6d4d1c606e5624b1dc7b2218f220
     Pseudo is Ultrasoft, Zval =  1.0
     Generated using "atomic" code by A. Dal Corso  v.5.1
     Using radial grid of  929 points,  2 beta functions with: 
                l(1) =   0
                l(2) =   0
     Q(r) pseudized with 0 coefficients 


     PseudoPot. # 2 for O  read from file:
     /share/pfaendtnergroup/rverma7/QE_PP/O.pbe-n-kjpaw_psl.0.1.UPF
     MD5 check sum: 0234752ac141de4415c5fc33072bef88
     Pseudo is Projector augmented-wave + core cor, Zval =  6.0
     Generated using "atomic" code by A. Dal Corso  v.5.0.99 svn rev. 10869
     Shape of augmentation charge: BESSEL
     Using radial grid of 1095 points,  4 beta functions with: 
                l(1) =   0
                l(2) =   0
                l(3) =   1
                l(4) =   1
     Q(r) pseudized with 0 coefficients 


     atomic species   valence    mass     pseudopotential
        H              1.00     1.00800     H ( 1.00)
        O              6.00    15.99900     O ( 1.00)

     No symmetry found



   Cartesian axes

     site n.     atom                  positions (alat units)
         1           H   tau(   1) = (   0.3437165   0.3054037   0.3921378  )
         2           H   tau(   2) = (   0.3139398   0.3139398   0.4177212  )
         3           H   tau(   3) = (   0.4146762   0.1612629   0.4702359  )
         4           H   tau(   4) = (   0.3778859   0.1747660   0.4635967  )
         5           H   tau(   5) = (   0.3347810   0.2562336   0.5221016  )
         6           H   tau(   6) = (   0.3118433   0.2328466   0.4979408  )
         7           H   tau(   7) = (   0.2550855   0.2901785   0.3433670  )
         8           H   tau(   8) = (   0.2635218   0.3232747   0.3273181  )
         9           H   tau(   9) = (   0.2725072   0.2794209   0.4085860  )
        10           H   tau(  10) = (   0.2835642   0.2481218   0.3848746  )
        11           H   tau(  11) = (   0.2863597   0.3753900   0.3507301  )
        12           H   tau(  12) = (   0.3093723   0.3485087   0.3701735  )
        13           H   tau(  13) = (   0.1988019   0.3084737   0.2595532  )
        14           H   tau(  14) = (   0.2027705   0.3241483   0.2214152  )
        15           H   tau(  15) = (   0.2241108   0.1812804   0.4379134  )
        16           H   tau(  16) = (   0.2143766   0.2188943   0.4426557  )
        17           H   tau(  17) = (   0.3223512   0.3217771   0.3269188  )
        18           H   tau(  18) = (   0.3194060   0.2858854   0.3047049  )
        19           H   tau(  19) = (   0.3754649   0.2544865   0.3756645  )
        20           H   tau(  20) = (   0.3430176   0.2407338   0.3907151  )
        21           H   tau(  21) = (   0.2848122   0.1199551   0.5146637  )
        22           H   tau(  22) = (   0.3007862   0.1281667   0.4792712  )
        23           H   tau(  23) = (   0.2899538   0.2295021   0.2863597  )
        24           H   tau(  24) = (   0.2862598   0.2393111   0.3260701  )
        25           H   tau(  25) = (   0.3137152   0.1869462   0.4459753  )
        26           H   tau(  26) = (   0.3282166   0.1518283   0.4351429  )
        27           H   tau(  27) = (   0.1741670   0.2893298   0.3156371  )
        28           H   tau(  28) = (   0.2132035   0.3016099   0.3105454  )
        29           H   tau(  29) = (   0.3559216   0.1341071   0.4698864  )
        30           H   tau(  30) = (   0.3468614   0.0967927   0.4589542  )
        31           H   tau(  31) = (   0.2715088   0.2872332   0.4604018  )
        32           H   tau(  32) = (   0.3122925   0.2932485   0.4597279  )
        33           H   tau(  33) = (   0.1905404   0.2663921   0.4091352  )
        34           H   tau(  34) = (   0.2281542   0.2520654   0.3964558  )
        35           H   tau(  35) = (   0.4199426   0.2651941   0.3375764  )
        36           H   tau(  36) = (   0.3798078   0.2807188   0.3289904  )
        37           H   tau(  37) = (   0.2678148   0.2838637   0.2822164  )
        38           H   tau(  38) = (   0.2840384   0.2815675   0.2453263  )
        39           H   tau(  39) = (   0.3597654   0.2298515   0.4729814  )
        40           H   tau(  40) = (   0.3731187   0.2351429   0.4349931  )
        41           H   tau(  41) = (   0.2820417   0.1776363   0.4990141  )
        42           H   tau(  42) = (   0.2609260   0.2066891   0.4834145  )
        43           H   tau(  43) = (   0.3241982   0.1980781   0.3924872  )
        44           H   tau(  44) = (   0.3156620   0.2039935   0.3503806  )
        45           O   tau(  45) = (   0.3281917   0.3229252   0.3982528  )
        46           O   tau(  46) = (   0.3894921   0.1541245   0.4745039  )
        47           O   tau(  47) = (   0.3285162   0.2520654   0.4986896  )
        48           O   tau(  48) = (   0.2515412   0.3015350   0.3223512  )
        49           O   tau(  49) = (   0.2645701   0.2667415   0.3874953  )
        50           O   tau(  50) = (   0.2968925   0.3531012   0.3478597  )
        51           O   tau(  51) = (   0.2145014   0.3117185   0.2400349  )
        52           O   tau(  52) = (   0.2264820   0.1996256   0.4546362  )
        53           O   tau(  53) = (   0.3361538   0.3019094   0.3176838  )
        54           O   tau(  54) = (   0.3645576   0.2549856   0.3976039  )
        55           O   tau(  55) = (   0.2804942   0.1338325   0.4926994  )
        56           O   tau(  56) = (   0.2914015   0.2206415   0.3101211  )
        57           O   tau(  57) = (   0.3185573   0.1721952   0.4250842  )
        58           O   tau(  58) = (   0.1884687   0.3044802   0.3036566  )
        59           O   tau(  59) = (   0.3375265   0.1190316   0.4600275  )
        60           O   tau(  60) = (   0.2908274   0.2917010   0.4454012  )
        61           O   tau(  61) = (   0.2052664   0.2459254   0.4086609  )
        62           O   tau(  62) = (   0.3943092   0.2614002   0.3389242  )
        63           O   tau(  63) = (   0.2886809   0.2781480   0.2702608  )
        64           O   tau(  64) = (   0.3705479   0.2172969   0.4537876  )
        65           O   tau(  65) = (   0.2818170   0.2015475   0.4979658  )
        66           O   tau(  66) = (   0.3139398   0.2139274   0.3746162  )

     number of k points=     1
                       cart. coord. in units 2pi/alat
        k(    1) = (   0.0000000   0.0000000   0.0000000), wk =   2.0000000

     Dense  grid:  4816379 G-vectors     FFT dimensions: ( 270, 270, 270)

     Estimated max dynamical RAM per process >     612.29 MB

     Estimated total dynamical RAM >      19.13 GB

     Check: negative core charge=   -0.000006

     Initial potential from superposition of free atoms

     starting charge     175.9995, renormalised to     176.0000

     negative rho (up, down):  3.737E-01 0.000E+00
     Starting wfcs are  132 randomized atomic wfcs
     Checking if some PAW data can be deallocated... 

     total cpu time spent up to now is        8.7 secs

     Self-consistent Calculation

     iteration #  1     ecut=    30.00 Ry     beta= 0.50
     Davidson diagonalization with overlap
     ethr =  1.00E-02,  avg # of iterations =  2.0

     negative rho (up, down):  4.425E-01 0.000E+00

     total cpu time spent up to now is       17.8 secs

     total energy              =    -965.68074873 Ry
     estimated scf accuracy    <       7.04729060 Ry

     iteration #  2     ecut=    30.00 Ry     beta= 0.50
     Davidson diagonalization with overlap
     ethr =  4.00E-03,  avg # of iterations =  2.0

     negative rho (up, down):  4.630E-01 0.000E+00

     total cpu time spent up to now is       27.2 secs

     total energy              =    -967.67320007 Ry
     estimated scf accuracy    <       1.06718260 Ry

     iteration #  3     ecut=    30.00 Ry     beta= 0.50
     Davidson diagonalization with overlap
     ethr =  6.06E-04,  avg # of iterations =  2.0

     negative rho (up, down):  5.090E-01 0.000E+00

     total cpu time spent up to now is       35.7 secs

     total energy              =    -967.73022192 Ry
     estimated scf accuracy    <       0.13550089 Ry

     iteration #  4     ecut=    30.00 Ry     beta= 0.50
     Davidson diagonalization with overlap
     ethr =  7.70E-05,  avg # of iterations =  3.0

     negative rho (up, down):  5.091E-01 0.000E+00

     total cpu time spent up to now is       45.6 secs

     total energy              =    -967.75559650 Ry
     estimated scf accuracy    <       0.04353017 Ry

     iteration #  5     ecut=    30.00 Ry     beta= 0.50
     Davidson diagonalization with overlap
     ethr =  2.47E-05,  avg # of iterations =  2.0

     negative rho (up, down):  5.081E-01 0.000E+00

     total cpu time spent up to now is       53.4 secs

     total energy              =    -967.75621188 Ry
     estimated scf accuracy    <       0.00834180 Ry

     iteration #  6     ecut=    30.00 Ry     beta= 0.50
     Davidson diagonalization with overlap
     ethr =  4.74E-06,  avg # of iterations =  2.0

     negative rho (up, down):  5.072E-01 0.000E+00

     total cpu time spent up to now is       61.8 secs

     total energy              =    -967.75644087 Ry
     estimated scf accuracy    <       0.00172538 Ry

     iteration #  7     ecut=    30.00 Ry     beta= 0.50
     Davidson diagonalization with overlap
     ethr =  9.80E-07,  avg # of iterations =  2.0

     negative rho (up, down):  5.068E-01 0.000E+00

     total cpu time spent up to now is       72.7 secs

     total energy              =    -967.75665933 Ry
     estimated scf accuracy    <       0.00013811 Ry

     iteration #  8     ecut=    30.00 Ry     beta= 0.50
     Davidson diagonalization with overlap
     ethr =  7.85E-08,  avg # of iterations =  2.0

     negative rho (up, down):  5.069E-01 0.000E+00

     total cpu time spent up to now is       82.1 secs

     total energy              =    -967.75671018 Ry
     estimated scf accuracy    <       0.00002153 Ry

     iteration #  9     ecut=    30.00 Ry     beta= 0.50
     Davidson diagonalization with overlap
     ethr =  1.22E-08,  avg # of iterations =  2.0

     negative rho (up, down):  5.069E-01 0.000E+00

     total cpu time spent up to now is       89.9 secs

     total energy              =    -967.75670640 Ry
     estimated scf accuracy    <       0.00001223 Ry

     iteration # 10     ecut=    30.00 Ry     beta= 0.50
     Davidson diagonalization with overlap
     ethr =  6.95E-09,  avg # of iterations =  2.0

     negative rho (up, down):  5.070E-01 0.000E+00

     total cpu time spent up to now is       98.7 secs

     End of self-consistent calculation

          k = 0.0000 0.0000 0.0000 (602235 PWs)   bands (ev):

   -26.5824 -26.1021 -26.0270 -25.3908 -25.3563 -25.2674 -25.0641 -24.9504
   -24.9429 -24.9144 -24.8472 -24.6921 -24.6759 -24.6177 -24.5737 -24.4627
   -24.4257 -24.2988 -24.1641 -23.9325 -23.8425 -23.6821 -14.6603 -14.1641
   -13.4248 -13.3462 -13.3030 -13.2399 -13.2067 -13.1382 -12.9292 -12.8142
   -12.7682 -12.7508 -12.6057 -12.4433 -12.4056 -12.3155 -12.1444 -12.0868
   -12.0590 -11.9961 -11.7754 -11.5549 -11.2041 -10.8818 -10.8144 -10.3153
   -10.2199 -10.0772 -10.0141  -9.8772  -9.5407  -9.5333  -9.4204  -9.2437
    -9.0719  -8.9616  -8.8878  -8.7952  -8.7809  -8.6677  -8.5576  -8.3967
    -8.3018  -8.1753  -7.9762  -7.9643  -7.7738  -7.6326  -7.6064  -7.5502
    -7.3124  -7.2333  -7.1901  -7.1678  -7.1610  -7.0916  -7.0693  -7.0172
    -6.9588  -6.8358  -6.7868  -6.7014  -6.6771  -6.3174  -6.2901  -6.2695

     highest occupied level (ev):    -6.2695

!    total energy              =    -967.75670780 Ry
     estimated scf accuracy    <       0.00000056 Ry

     The total energy is the sum of the following terms:
     one-electron contribution =   -5607.03934719 Ry
     hartree contribution      =    2838.60538452 Ry
     xc contribution           =    -193.49201756 Ry
     ewald contribution        =    2203.48697660 Ry
     one-center paw contrib.   =    -209.31770417 Ry

     convergence has been achieved in  10 iterations

     negative rho (up, down):  5.070E-01 0.000E+00

     Forces acting on atoms (cartesian axes, Ry/au):

     atom    1 type  1   force =     0.01711187   -0.03358635   -0.00327050
     atom    2 type  1   force =     0.03684810    0.02516658   -0.06606374
     atom    3 type  1   force =    -0.11005440   -0.04062283    0.02075179
     atom    4 type  1   force =     0.03449377   -0.01494818    0.02158960
     atom    5 type  1   force =    -0.01101041   -0.01142009   -0.01207673
     atom    6 type  1   force =     0.00435163    0.00623271    0.01738772
     atom    7 type  1   force =     0.00217519   -0.03072149    0.04230150
     atom    8 type  1   force =    -0.01081151   -0.02083422   -0.01019436
     atom    9 type  1   force =    -0.00963013   -0.03388633   -0.05557231
     atom   10 type  1   force =    -0.06192821    0.04824379    0.00553360
     atom   11 type  1   force =     0.01583265   -0.02177641   -0.00931846
     atom   12 type  1   force =    -0.02175959   -0.01382376   -0.03487603
     atom   13 type  1   force =     0.00629472    0.01088194   -0.02420096
     atom   14 type  1   force =     0.01719911   -0.03047631    0.05536975
     atom   15 type  1   force =     0.01137904    0.02096919    0.02751700
     atom   16 type  1   force =     0.02540660   -0.02855481    0.01163557
     atom   17 type  1   force =     0.03489430   -0.05973206   -0.03676644
     atom   18 type  1   force =     0.06252015    0.08063474    0.03984575
     atom   19 type  1   force =     0.03905335    0.00954003   -0.02549624
     atom   20 type  1   force =     0.06550177    0.04521000    0.01777676
     atom   21 type  1   force =    -0.02123428    0.05837359   -0.08956999
     atom   22 type  1   force =    -0.00146760   -0.00748474    0.00110576
     atom   23 type  1   force =     0.00338423    0.00599196    0.06092923
     atom   24 type  1   force =     0.00591610   -0.02503023   -0.04838671
     atom   25 type  1   force =     0.01405637   -0.04398998   -0.07106973
     atom   26 type  1   force =    -0.00097971   -0.01037498   -0.01533150
     atom   27 type  1   force =    -0.00265470   -0.02129075    0.01382815
     atom   28 type  1   force =    -0.04975342    0.00073406    0.00658311
     atom   29 type  1   force =    -0.00181653   -0.04866656   -0.01458773
     atom   30 type  1   force =     0.01046943   -0.01500293   -0.00341749
     atom   31 type  1   force =     0.03296759    0.00778312   -0.00278237
     atom   32 type  1   force =    -0.07269460   -0.02789196   -0.02169854
     atom   33 type  1   force =     0.03891429   -0.04183273   -0.00623048
     atom   34 type  1   force =    -0.05473614   -0.00022032    0.03794833
     atom   35 type  1   force =    -0.10310077    0.00753787   -0.00522984
     atom   36 type  1   force =     0.05023388   -0.04420333    0.02092999
     atom   37 type  1   force =     0.00140122    0.00914333   -0.00462580
     atom   38 type  1   force =     0.00749789   -0.00358402    0.07443385
     atom   39 type  1   force =     0.01368321   -0.01274766   -0.02668079
     atom   40 type  1   force =    -0.00821098   -0.04662360    0.02443565
     atom   41 type  1   force =     0.00051393   -0.07331356    0.00226153
     atom   42 type  1   force =     0.04597220   -0.02544433    0.02772288
     atom   43 type  1   force =    -0.04022274    0.00053279   -0.03726554
     atom   44 type  1   force =    -0.00362899    0.03443910    0.08393319
     atom   45 type  2   force =    -0.04854327    0.02440148    0.05970016
     atom   46 type  2   force =     0.08524661    0.09143393   -0.03901182
     atom   47 type  2   force =    -0.00019800   -0.00008338   -0.00447748
     atom   48 type  2   force =     0.02371820    0.05047130   -0.01291303
     atom   49 type  2   force =     0.08285718   -0.03502016    0.02045032
     atom   50 type  2   force =    -0.00288665    0.02456903    0.04000587
     atom   51 type  2   force =    -0.02140624    0.01720867   -0.02802446
     atom   52 type  2   force =    -0.02973472    0.01526418   -0.03693673
     atom   53 type  2   force =    -0.07321109   -0.01943957   -0.01308542
     atom   54 type  2   force =    -0.10174479   -0.03978279    0.01412904
     atom   55 type  2   force =     0.01482522   -0.05809490    0.09734438
     atom   56 type  2   force =    -0.00765461    0.01481980   -0.00713579
     atom   57 type  2   force =    -0.02620072    0.06100265    0.06954339
     atom   58 type  2   force =     0.03844483    0.02481350   -0.02328697
     atom   59 type  2   force =     0.00409432    0.03286033    0.02168430
     atom   60 type  2   force =     0.03432188    0.00816284    0.05516720
     atom   61 type  2   force =     0.00894952    0.04291172   -0.01919681
     atom   62 type  2   force =     0.04145874    0.04272283   -0.03164267
     atom   63 type  2   force =    -0.01072389   -0.00872124   -0.07726505
     atom   64 type  2   force =    -0.00485934    0.05096491    0.00648326
     atom   65 type  2   force =    -0.04223833    0.10417254   -0.04268906
     atom   66 type  2   force =     0.02310725   -0.02796797   -0.03795106
     The non-local contrib.  to forces
     atom    1 type  1   force =    -0.07474363    0.08162406    0.03041494
     atom    2 type  1   force =     0.05072116    0.02820923   -0.06700829
     atom    3 type  1   force =    -0.07624751   -0.02096171    0.01188686
     atom    4 type  1   force =     0.03844433   -0.06762181    0.03528498
     atom    5 type  1   force =    -0.02927476   -0.02061781   -0.10094322
     atom    6 type  1   force =     0.06103858    0.06983985    0.00599233
     atom    7 type  1   force =    -0.01668472    0.05518692   -0.10053113
     atom    8 type  1   force =    -0.04621258   -0.08349754   -0.01802337
     atom    9 type  1   force =    -0.02630662   -0.04380808   -0.07101390
     atom   10 type  1   force =    -0.05439756    0.05470163    0.00910315
     atom   11 type  1   force =     0.04462062   -0.09241710   -0.01009850
     atom   12 type  1   force =    -0.04207503    0.01730236   -0.07198611
     atom   13 type  1   force =     0.05676953    0.01431987   -0.07670758
     atom   14 type  1   force =     0.04118292   -0.04686126    0.07260888
     atom   15 type  1   force =     0.00896543    0.07612977    0.06674380
     atom   16 type  1   force =     0.04216048   -0.06839007    0.04057737
     atom   17 type  1   force =     0.04414589   -0.06878870   -0.03193576
     atom   18 type  1   force =     0.04756358    0.04930151    0.04073501
     atom   19 type  1   force =    -0.04808540    0.00152148    0.09480515
     atom   20 type  1   force =     0.06032507    0.03928959    0.01889237
     atom   21 type  1   force =    -0.01097339    0.04265154   -0.06928018
     atom   22 type  1   force =    -0.07959620    0.02175117    0.05579175
     atom   23 type  1   force =     0.00472165   -0.03068173    0.09076969
     atom   24 type  1   force =     0.01978043   -0.07124834   -0.06645421
     atom   25 type  1   force =     0.01722590   -0.05103553   -0.06831371
     atom   26 type  1   force =    -0.03979981    0.08769133   -0.03965162
     atom   27 type  1   force =     0.07185657    0.07088311   -0.05604381
     atom   28 type  1   force =    -0.08193931    0.00626173   -0.01996032
     atom   29 type  1   force =    -0.06069873   -0.05234481   -0.03341690
     atom   30 type  1   force =    -0.04209335    0.10663272    0.00621053
     atom   31 type  1   force =     0.08238128    0.01927220   -0.06013329
     atom   32 type  1   force =    -0.07681073   -0.00491714   -0.04824631
     atom   33 type  1   force =     0.05875380   -0.07656699   -0.00290478
     atom   34 type  1   force =    -0.06351983   -0.01323911    0.03395602
     atom   35 type  1   force =    -0.08673410   -0.00869705    0.00302311
     atom   36 type  1   force =     0.05194025   -0.06083215    0.03175537
     atom   37 type  1   force =     0.08781807   -0.02446182   -0.05416163
     atom   38 type  1   force =     0.01463695   -0.01193206    0.09075997
     atom   39 type  1   force =     0.04044700   -0.04557917   -0.07252154
     atom   40 type  1   force =    -0.00947951   -0.05615640    0.06175279
     atom   41 type  1   force =    -0.00169565    0.11755618   -0.00666107
     atom   42 type  1   force =     0.07006385   -0.01822519    0.04840008
     atom   43 type  1   force =    -0.03265106    0.05018870   -0.05996580
     atom   44 type  1   force =    -0.00349912    0.02983092    0.07913191
     atom   45 type  2   force =     0.08281898   -1.74505634    0.73230167
     atom   46 type  2   force =     0.79242045    1.54357193   -1.01317416
     atom   47 type  2   force =    -0.52217971   -0.90800370    1.71683115
     atom   48 type  2   force =     0.84852775    0.58252138    1.67534031
     atom   49 type  2   force =     1.41027051   -0.35156476    1.14103147
     atom   50 type  2   force =    -0.10691052    1.31876765    1.46462282
     atom   51 type  2   force =    -2.03299143    0.73865123   -0.09533019
     atom   52 type  2   force =    -0.80469816   -0.07037847   -1.91570770
     atom   53 type  2   force =    -1.92831230    0.21062117   -0.08892481
     atom   54 type  2   force =    -0.53595024   -0.86155513   -1.59130101
     atom   55 type  2   force =     1.72578071   -1.17543293    0.71768527
     atom   56 type  2   force =    -0.42893923    2.04638773   -0.45931493
     atom   57 type  2   force =     0.46226492   -0.25696490    1.96385538
     atom   58 type  2   force =     0.41779378   -1.50109029    1.26324289
     atom   59 type  2   force =     1.66767294   -0.69825071    0.55490214
     atom   60 type  2   force =     0.01405382   -0.10513059    1.94065913
     atom   61 type  2   force =     0.24948206    1.88887700   -0.52144822
     atom   62 type  2   force =     0.94881192    1.69467119   -0.63220465
     atom   63 type  2   force =    -1.77088026    0.52574143   -0.94836369
     atom   64 type  2   force =    -0.49870477    1.73439264    0.21508409
     atom   65 type  2   force =    -1.06317681   -1.12433428   -0.91428115
     atom   66 type  2   force =     0.83737998   -1.35027667   -0.44255485
     The ionic contribution  to forces
     atom    1 type  1   force =     3.60270622   -0.52570630   -0.49190382
     atom    2 type  1   force =    -0.82997920    1.47137212    2.80649511
     atom    3 type  1   force =     4.81956416   -0.13537792    0.21975751
     atom    4 type  1   force =     0.71156020    0.93446368   -0.22830634
     atom    5 type  1   force =     1.51550091    1.47662338    5.42074226
     atom    6 type  1   force =    -1.50357743   -1.33885185    2.02146062
     atom    7 type  1   force =    -0.91242524   -0.92147596    2.28336539
     atom    8 type  1   force =     0.25049361    4.20172229   -0.30192076
     atom    9 type  1   force =    -0.52662377    2.18140035    2.41174050
     atom   10 type  1   force =     0.83038446   -1.89666156   -0.37176352
     atom   11 type  1   force =    -1.70045847    5.41133683    0.13660846
     atom   12 type  1   force =     1.36005916    2.36451724    2.20609448
     atom   13 type  1   force =    -3.07934000    0.08015466    0.41423807
     atom   14 type  1   force =    -2.17690221    2.18185073   -3.89882706
     atom   15 type  1   force =    -2.01760316   -3.87304222   -1.99819515
     atom   16 type  1   force =    -3.25151215    1.45118524   -0.03889974
     atom   17 type  1   force =    -0.08457655    3.49121020   -0.44124817
     atom   18 type  1   force =    -0.21115915   -1.13510264   -2.70638293
     atom   19 type  1   force =     3.32726690   -0.14114218   -2.58229670
     atom   20 type  1   force =    -0.52390108   -1.18190124   -0.65464852
     atom   21 type  1   force =    -0.19020371   -3.08286215    4.03955564
     atom   22 type  1   force =     1.34654483   -2.51462428   -0.46966207
     atom   23 type  1   force =    -0.21210976   -0.80933775   -4.71957111
     atom   24 type  1   force =    -1.13353646    1.08432849    0.60325177
     atom   25 type  1   force =    -0.73024006    0.73250010    2.48696722
     atom   26 type  1   force =     1.30608958   -3.88195899    0.18692088
     atom   27 type  1   force =    -4.19706651   -2.14671237    1.40181743
     atom   28 type  1   force =     0.26085735    0.27474487    0.00166784
     atom   29 type  1   force =     2.38787251   -0.55690996    1.91145737
     atom   30 type  1   force =     1.86180668   -5.54762877   -0.06313278
     atom   31 type  1   force =    -3.64549967    0.84390072    3.66625881
     atom   32 type  1   force =     2.64796088    1.91235357    3.26992569
     atom   33 type  1   force =    -4.14296658    3.04516148    0.51442070
     atom   34 type  1   force =    -0.41433079    0.17619287   -1.05718344
     atom   35 type  1   force =     5.12535117    0.51983423   -0.97399370
     atom   36 type  1   force =     0.72150356    2.45663338   -2.32262392
     atom   37 type  1   force =    -2.94644522    0.65817768   -0.78321072
     atom   38 type  1   force =    -0.21656689    0.42466203   -5.32634570
     atom   39 type  1   force =     0.65996759    1.60305865    3.55602283
     atom   40 type  1   force =     2.57196692    1.86417724   -0.86180015
     atom   41 type  1   force =    -0.59703050   -3.54364087    2.23591071
     atom   42 type  1   force =    -3.20008818    0.62926859    0.32798129
     atom   43 type  1   force =     1.57792157   -2.88333936    0.58348192
     atom   44 type  1   force =     0.75907427   -3.01457292   -3.62895788
     atom   45 type  2   force =     5.94900768   15.24624442    3.34944145
     atom   46 type  2   force =    11.11907814   -8.80895210    7.56500098
     atom   47 type  2   force =     4.33696012    7.49001679   10.54605105
     atom   48 type  2   force =    -7.92214333    4.58816092   -6.67599689
     atom   49 type  2   force =    -8.82540788    2.37004097   -1.74933651
     atom   50 type  2   force =    -0.42168312   13.58988433   -4.55806234
     atom   51 type  2   force =    -1.55134982    2.14805474  -10.74019614
     atom   52 type  2   force =    -9.95495987   -4.99183509    7.56175894
     atom   53 type  2   force =    11.08796301    5.71752705   -8.61190893
     atom   54 type  2   force =    12.09929210    3.76135156    3.84443288
     atom   55 type  2   force =    -8.74757883   -9.03116265    6.95960238
     atom   56 type  2   force =    -0.74526829  -13.00378820   -9.52155748
     atom   57 type  2   force =    -1.14030783   -8.80249128   -5.68713478
     atom   58 type  2   force =   -12.93636185    5.28704832   -4.51200716
     atom   59 type  2   force =     0.42576188  -13.42085773    0.58699316
     atom   60 type  2   force =    -3.30139861    9.19022374    7.48570282
     atom   61 type  2   force =   -14.48273030   -2.72171907    1.77707473
     atom   62 type  2   force =    12.35400632   -2.57262781   -6.41398390
     atom   63 type  2   force =     4.16826660   -0.74633372  -13.60517737
     atom   64 type  2   force =    12.49390483   -2.48388021    5.08850787
     atom   65 type  2   force =    -2.84109089    1.27245906   13.63063818
     atom   66 type  2   force =    -0.36426987   -6.41734534   -5.10511127
     The local contribution  to forces
     atom    1 type  1   force =    -3.51085557    0.41048079    0.45819550
     atom    2 type  1   force =     0.81607459   -1.47441358   -2.80554317
     atom    3 type  1   force =    -4.85340089    0.11573459   -0.21091097
     atom    4 type  1   force =    -0.71552471   -0.88179046    0.21459856
     atom    5 type  1   force =    -1.49725130   -1.46740788   -5.33187112
     atom    6 type  1   force =     1.44687670    1.27525840   -2.01008314
     atom    7 type  1   force =     0.93127252    0.83558035   -2.14052502
     atom    8 type  1   force =    -0.21509823   -4.13901647    0.30975045
     atom    9 type  1   force =     0.54329356   -2.17145479   -2.39629120
     atom   10 type  1   force =    -0.83790659    1.89020420    0.36818277
     atom   11 type  1   force =     1.67163824   -5.34065537   -0.13583782
     atom   12 type  1   force =    -1.33976997   -2.39561090   -2.16899337
     atom   13 type  1   force =     3.02882015   -0.08357866   -0.36174536
     atom   14 type  1   force =     2.15288022   -2.16543550    3.88155131
     atom   15 type  1   force =     2.01998268    3.81788675    1.95892034
     atom   16 type  1   force =     3.23471805   -1.41131721    0.00991618
     atom   17 type  1   force =     0.07529517   -3.48213042    0.43640025
     atom   18 type  1   force =     0.22608496    1.16644128    2.70547129
     atom   19 type  1   force =    -3.24015889    0.14916124    2.46194836
     atom   20 type  1   force =     0.52903449    1.18781763    0.65349989
     atom   21 type  1   force =     0.17992352    3.09860073   -4.05985746
     atom   22 type  1   force =    -1.26844439    2.48541083    0.41497694
     atom   23 type  1   force =     0.21074869    0.84604191    4.68968882
     atom   24 type  1   force =     1.11965074   -1.03807213   -0.58518920
     atom   25 type  1   force =     0.72704820   -0.72541949   -2.48970632
     atom   26 type  1   force =    -1.26727718    3.78390645   -0.16259549
     atom   27 type  1   force =     4.12251215    2.05453147   -1.33194406
     atom   28 type  1   force =    -0.22868957   -0.28026702    0.02487073
     atom   29 type  1   force =    -2.32897307    0.56063458   -1.89263145
     atom   30 type  1   force =    -1.80923535    5.42596976    0.05349131
     atom   31 type  1   force =     3.59603718   -0.85538023   -3.60889423
     atom   32 type  1   force =    -2.64383779   -1.93530608   -3.24337120
     atom   33 type  1   force =     4.12309649   -3.01040370   -0.51775942
     atom   34 type  1   force =     0.42307986   -0.16316391    1.06116759
     atom   35 type  1   force =    -5.14168654   -0.50356951    0.96571920
     atom   36 type  1   force =    -0.72325633   -2.43994789    2.31176441
     atom   37 type  1   force =     2.86000316   -0.62455989    0.83271893
     atom   38 type  1   force =     0.20940248   -0.41629625    5.30998712
     atom   39 type  1   force =    -0.68676179   -1.57019499   -3.51018889
     atom   40 type  1   force =    -2.57072644   -1.85461845    0.82447472
     atom   41 type  1   force =     0.59921492    3.35273761   -2.22701237
     atom   42 type  1   force =     3.17595066   -0.63646810   -0.34869990
     atom   43 type  1   force =    -1.58548664    2.83370244   -0.56079150
     atom   44 type  1   force =    -0.75921094    3.01918555    3.63371661
     atom   45 type  2   force =    -6.07969586  -13.49431651   -4.01434869
     atom   46 type  2   force =   -11.81667410    7.37285602   -6.60144000
     atom   47 type  2   force =    -3.81948639   -6.59076615  -12.24901701
     atom   48 type  2   force =     7.10508471   -5.11481339    5.00477129
     atom   49 type  2   force =     7.51208666   -2.05737899    0.64078125
     atom   50 type  2   force =     0.52412886  -14.86995721    3.14766326
     atom   51 type  2   force =     3.54165354   -2.86161967   10.80560810
     atom   52 type  2   force =    10.72100882    5.07660712   -5.70269074
     atom   53 type  2   force =    -9.25201111   -5.94548040    8.68685724
     atom   54 type  2   force =   -11.67119947   -2.94833936   -2.25409361
     atom   55 type  2   force =     7.05362538   10.13611619   -7.57119571
     atom   56 type  2   force =     1.16258539   10.99301004    9.97005858
     atom   57 type  2   force =     0.65664673    9.11801307    3.81331584
     atom   58 type  2   force =    12.56059252   -3.77633421    3.23848474
     atom   59 type  2   force =    -2.07254277   14.14366709   -1.11475189
     atom   60 type  2   force =     3.32186118   -9.07765793   -9.35072331
     atom   61 type  2   force =    14.24434104    0.89506694   -1.28083296
     atom   62 type  2   force =   -13.25072490    0.93908132    7.00743374
     atom   63 type  2   force =    -2.42549216    0.21709320   14.46494060
     atom   64 type  2   force =   -12.00386011    0.81854604   -5.29532959
     atom   65 type  2   force =     3.85100455   -0.05367676  -12.76847498
     atom   66 type  2   force =    -0.44139681    7.72614637    5.50424702
     The core correction contribution to forces
     atom    1 type  1   force =     0.00000000    0.00000000    0.00000000
     atom    2 type  1   force =     0.00000000    0.00000000    0.00000000
     atom    3 type  1   force =     0.00000000    0.00000000    0.00000000
     atom    4 type  1   force =     0.00000000    0.00000000    0.00000000
     atom    5 type  1   force =     0.00000000    0.00000000    0.00000000
     atom    6 type  1   force =     0.00000000    0.00000000    0.00000000
     atom    7 type  1   force =     0.00000000    0.00000000    0.00000000
     atom    8 type  1   force =     0.00000000    0.00000000    0.00000000
     atom    9 type  1   force =     0.00000000    0.00000000    0.00000000
     atom   10 type  1   force =     0.00000000    0.00000000    0.00000000
     atom   11 type  1   force =     0.00000000    0.00000000    0.00000000
     atom   12 type  1   force =     0.00000000    0.00000000    0.00000000
     atom   13 type  1   force =     0.00000000    0.00000000    0.00000000
     atom   14 type  1   force =     0.00000000    0.00000000    0.00000000
     atom   15 type  1   force =     0.00000000    0.00000000    0.00000000
     atom   16 type  1   force =     0.00000000    0.00000000    0.00000000
     atom   17 type  1   force =     0.00000000    0.00000000    0.00000000
     atom   18 type  1   force =     0.00000000    0.00000000    0.00000000
     atom   19 type  1   force =     0.00000000    0.00000000    0.00000000
     atom   20 type  1   force =     0.00000000    0.00000000    0.00000000
     atom   21 type  1   force =     0.00000000    0.00000000    0.00000000
     atom   22 type  1   force =     0.00000000    0.00000000    0.00000000
     atom   23 type  1   force =     0.00000000    0.00000000    0.00000000
     atom   24 type  1   force =     0.00000000    0.00000000    0.00000000
     atom   25 type  1   force =     0.00000000    0.00000000    0.00000000
     atom   26 type  1   force =     0.00000000    0.00000000    0.00000000
     atom   27 type  1   force =     0.00000000    0.00000000    0.00000000
     atom   28 type  1   force =     0.00000000    0.00000000    0.00000000
     atom   29 type  1   force =     0.00000000    0.00000000    0.00000000
     atom   30 type  1   force =     0.00000000    0.00000000    0.00000000
     atom   31 type  1   force =     0.00000000    0.00000000    0.00000000
     atom   32 type  1   force =     0.00000000    0.00000000    0.00000000
     atom   33 type  1   force =     0.00000000    0.00000000    0.00000000
     atom   34 type  1   force =     0.00000000    0.00000000    0.00000000
     atom   35 type  1   force =     0.00000000    0.00000000    0.00000000
     atom   36 type  1   force =     0.00000000    0.00000000    0.00000000
     atom   37 type  1   force =     0.00000000    0.00000000    0.00000000
     atom   38 type  1   force =     0.00000000    0.00000000    0.00000000
     atom   39 type  1   force =     0.00000000    0.00000000    0.00000000
     atom   40 type  1   force =     0.00000000    0.00000000    0.00000000
     atom   41 type  1   force =     0.00000000    0.00000000    0.00000000
     atom   42 type  1   force =     0.00000000    0.00000000    0.00000000
     atom   43 type  1   force =     0.00000000    0.00000000    0.00000000
     atom   44 type  1   force =     0.00000000    0.00000000    0.00000000
     atom   45 type  2   force =    -0.00067372    0.01735045   -0.00763037
     atom   46 type  2   force =    -0.00952527   -0.01592099    0.01050669
     atom   47 type  2   force =     0.00449936    0.00861882   -0.01821001
     atom   48 type  2   force =    -0.00767862   -0.00535468   -0.01681099
     atom   49 type  2   force =    -0.01397140    0.00385679   -0.01193419
     atom   50 type  2   force =     0.00149627   -0.01391574   -0.01410059
     atom   51 type  2   force =     0.02112593   -0.00781106    0.00181230
     atom   52 type  2   force =     0.00875435    0.00089855    0.01938198
     atom   53 type  2   force =     0.01905766   -0.00211527    0.00083067
     atom   54 type  2   force =     0.00590072    0.00856328    0.01480067
     atom   55 type  2   force =    -0.01692576    0.01231220   -0.00862012
     atom   56 type  2   force =     0.00393140   -0.02061891    0.00364321
     atom   57 type  2   force =    -0.00480436    0.00248828   -0.02022128
     atom   58 type  2   force =    -0.00370482    0.01502553   -0.01287082
     atom   59 type  2   force =    -0.01662616    0.00831126   -0.00542416
     atom   60 type  2   force =    -0.00018675    0.00071264   -0.02032661
     atom   61 type  2   force =    -0.00220816   -0.01923605    0.00603347
     atom   62 type  2   force =    -0.01063403   -0.01830645    0.00707412
     atom   63 type  2   force =     0.01725905   -0.00517283    0.01116996
     atom   64 type  2   force =     0.00364141   -0.01781116   -0.00174320
     atom   65 type  2   force =     0.01087504    0.00957643    0.00927374
     atom   66 type  2   force =    -0.00847573    0.01348060    0.00544162
     The Hubbard contrib.    to forces
     atom    1 type  1   force =     0.00000000    0.00000000    0.00000000
     atom    2 type  1   force =     0.00000000    0.00000000    0.00000000
     atom    3 type  1   force =     0.00000000    0.00000000    0.00000000
     atom    4 type  1   force =     0.00000000    0.00000000    0.00000000
     atom    5 type  1   force =     0.00000000    0.00000000    0.00000000
     atom    6 type  1   force =     0.00000000    0.00000000    0.00000000
     atom    7 type  1   force =     0.00000000    0.00000000    0.00000000
     atom    8 type  1   force =     0.00000000    0.00000000    0.00000000
     atom    9 type  1   force =     0.00000000    0.00000000    0.00000000
     atom   10 type  1   force =     0.00000000    0.00000000    0.00000000
     atom   11 type  1   force =     0.00000000    0.00000000    0.00000000
     atom   12 type  1   force =     0.00000000    0.00000000    0.00000000
     atom   13 type  1   force =     0.00000000    0.00000000    0.00000000
     atom   14 type  1   force =     0.00000000    0.00000000    0.00000000
     atom   15 type  1   force =     0.00000000    0.00000000    0.00000000
     atom   16 type  1   force =     0.00000000    0.00000000    0.00000000
     atom   17 type  1   force =     0.00000000    0.00000000    0.00000000
     atom   18 type  1   force =     0.00000000    0.00000000    0.00000000
     atom   19 type  1   force =     0.00000000    0.00000000    0.00000000
     atom   20 type  1   force =     0.00000000    0.00000000    0.00000000
     atom   21 type  1   force =     0.00000000    0.00000000    0.00000000
     atom   22 type  1   force =     0.00000000    0.00000000    0.00000000
     atom   23 type  1   force =     0.00000000    0.00000000    0.00000000
     atom   24 type  1   force =     0.00000000    0.00000000    0.00000000
     atom   25 type  1   force =     0.00000000    0.00000000    0.00000000
     atom   26 type  1   force =     0.00000000    0.00000000    0.00000000
     atom   27 type  1   force =     0.00000000    0.00000000    0.00000000
     atom   28 type  1   force =     0.00000000    0.00000000    0.00000000
     atom   29 type  1   force =     0.00000000    0.00000000    0.00000000
     atom   30 type  1   force =     0.00000000    0.00000000    0.00000000
     atom   31 type  1   force =     0.00000000    0.00000000    0.00000000
     atom   32 type  1   force =     0.00000000    0.00000000    0.00000000
     atom   33 type  1   force =     0.00000000    0.00000000    0.00000000
     atom   34 type  1   force =     0.00000000    0.00000000    0.00000000
     atom   35 type  1   force =     0.00000000    0.00000000    0.00000000
     atom   36 type  1   force =     0.00000000    0.00000000    0.00000000
     atom   37 type  1   force =     0.00000000    0.00000000    0.00000000
     atom   38 type  1   force =     0.00000000    0.00000000    0.00000000
     atom   39 type  1   force =     0.00000000    0.00000000    0.00000000
     atom   40 type  1   force =     0.00000000    0.00000000    0.00000000
     atom   41 type  1   force =     0.00000000    0.00000000    0.00000000
     atom   42 type  1   force =     0.00000000    0.00000000    0.00000000
     atom   43 type  1   force =     0.00000000    0.00000000    0.00000000
     atom   44 type  1   force =     0.00000000    0.00000000    0.00000000
     atom   45 type  2   force =     0.00000000    0.00000000    0.00000000
     atom   46 type  2   force =     0.00000000    0.00000000    0.00000000
     atom   47 type  2   force =     0.00000000    0.00000000    0.00000000
     atom   48 type  2   force =     0.00000000    0.00000000    0.00000000
     atom   49 type  2   force =     0.00000000    0.00000000    0.00000000
     atom   50 type  2   force =     0.00000000    0.00000000    0.00000000
     atom   51 type  2   force =     0.00000000    0.00000000    0.00000000
     atom   52 type  2   force =     0.00000000    0.00000000    0.00000000
     atom   53 type  2   force =     0.00000000    0.00000000    0.00000000
     atom   54 type  2   force =     0.00000000    0.00000000    0.00000000
     atom   55 type  2   force =     0.00000000    0.00000000    0.00000000
     atom   56 type  2   force =     0.00000000    0.00000000    0.00000000
     atom   57 type  2   force =     0.00000000    0.00000000    0.00000000
     atom   58 type  2   force =     0.00000000    0.00000000    0.00000000
     atom   59 type  2   force =     0.00000000    0.00000000    0.00000000
     atom   60 type  2   force =     0.00000000    0.00000000    0.00000000
     atom   61 type  2   force =     0.00000000    0.00000000    0.00000000
     atom   62 type  2   force =     0.00000000    0.00000000    0.00000000
     atom   63 type  2   force =     0.00000000    0.00000000    0.00000000
     atom   64 type  2   force =     0.00000000    0.00000000    0.00000000
     atom   65 type  2   force =     0.00000000    0.00000000    0.00000000
     atom   66 type  2   force =     0.00000000    0.00000000    0.00000000
     The SCF correction term to forces
     atom    1 type  1   force =    -0.00001701    0.00003281    0.00000548
     atom    2 type  1   force =     0.00000969    0.00001651   -0.00002481
     atom    3 type  1   force =     0.00000797   -0.00000009    0.00000098
     atom    4 type  1   force =    -0.00000792    0.00001811   -0.00000501
     atom    5 type  1   force =    -0.00000713   -0.00000008   -0.00002206
     atom    6 type  1   force =    -0.00000810    0.00000402    0.00000051
     atom    7 type  1   force =    -0.00000925    0.00000490   -0.00002515
     atom    8 type  1   force =    -0.00001618   -0.00002480   -0.00001810
     atom    9 type  1   force =    -0.00001517   -0.00000611   -0.00002512
     atom   10 type  1   force =    -0.00003039    0.00001722   -0.00000621
     atom   11 type  1   force =     0.00001040   -0.00002307   -0.00000800
     atom   12 type  1   force =     0.00000439   -0.00001475   -0.00000843
     atom   13 type  1   force =     0.00002317    0.00000376   -0.00000351
     atom   14 type  1   force =     0.00001631   -0.00001258    0.00001921
     atom   15 type  1   force =     0.00001223    0.00001259    0.00003060
     atom   16 type  1   force =     0.00001834   -0.00001507    0.00002434
     atom   17 type  1   force =     0.00000791   -0.00000544   -0.00000018
     atom   18 type  1   force =     0.00000888    0.00001228    0.00000496
     atom   19 type  1   force =     0.00000887    0.00001718    0.00002954
     atom   20 type  1   force =     0.00002141    0.00002171    0.00001560
     atom   21 type  1   force =    -0.00000256    0.00000118   -0.00000539
     atom   22 type  1   force =     0.00000630   -0.00000477   -0.00001827
     atom   23 type  1   force =     0.00000178   -0.00001277    0.00002442
     atom   24 type  1   force =    -0.00000049   -0.00002055   -0.00001248
     atom   25 type  1   force =     0.00000046   -0.00001737   -0.00003433
     atom   26 type  1   force =    -0.00001418    0.00000394   -0.00002268
     atom   27 type  1   force =     0.00002122    0.00002474   -0.00001883
     atom   28 type  1   force =    -0.00000375    0.00001218   -0.00001255
     atom   29 type  1   force =    -0.00003912   -0.00002867   -0.00001416
     atom   30 type  1   force =    -0.00003042    0.00004106   -0.00000395
     atom   31 type  1   force =     0.00002693    0.00000813   -0.00003107
     atom   32 type  1   force =    -0.00002882   -0.00000462   -0.00002412
     atom   33 type  1   force =     0.00000871   -0.00000583   -0.00000439
     atom   34 type  1   force =     0.00001274    0.00000753   -0.00000925
     atom   35 type  1   force =    -0.00005317   -0.00001210    0.00000414
     atom   36 type  1   force =     0.00002454   -0.00003898    0.00001672
     atom   37 type  1   force =     0.00000334    0.00000505    0.00001022
     atom   38 type  1   force =     0.00000348   -0.00000004    0.00001505
     atom   39 type  1   force =     0.00000854   -0.00001445   -0.00001060
     atom   40 type  1   force =     0.00000619   -0.00000829   -0.00000913
     atom   41 type  1   force =     0.00000329    0.00005122    0.00000685
     atom   42 type  1   force =     0.00002400   -0.00000193    0.00002400
     atom   43 type  1   force =    -0.00002848   -0.00000131   -0.00000758
     atom   44 type  1   force =    -0.00001506    0.00001324    0.00002514
     atom   45 type  2   force =    -0.00002223    0.00019715   -0.00008131
     atom   46 type  2   force =    -0.00007448   -0.00010323    0.00007725
     atom   47 type  2   force =    -0.00001323    0.00006856   -0.00015007
     atom   48 type  2   force =    -0.00009417   -0.00002524   -0.00023416
     atom   49 type  2   force =    -0.00014257    0.00004352   -0.00010911
     atom   50 type  2   force =     0.00005999   -0.00019231   -0.00013470
     atom   51 type  2   force =     0.00013368   -0.00004886    0.00006407
     atom   52 type  2   force =     0.00013827   -0.00001023    0.00030338
     atom   53 type  2   force =     0.00006978    0.00002559    0.00004300
     atom   54 type  2   force =     0.00019023    0.00021454    0.00027270
     atom   55 type  2   force =    -0.00009815    0.00008998   -0.00014485
     atom   56 type  2   force =     0.00001425   -0.00015317    0.00001741
     atom   57 type  2   force =    -0.00002205   -0.00002483   -0.00028919
     atom   58 type  2   force =     0.00010334    0.00018184   -0.00015402
     atom   59 type  2   force =    -0.00019343    0.00000811   -0.00005236
     atom   60 type  2   force =    -0.00002963    0.00003268   -0.00016223
     atom   61 type  2   force =     0.00004301   -0.00005940   -0.00004124
     atom   62 type  2   force =    -0.00002244   -0.00007772    0.00002061
     atom   63 type  2   force =     0.00010102   -0.00003161    0.00014803
     atom   64 type  2   force =     0.00013743   -0.00026471   -0.00005333
     atom   65 type  2   force =     0.00012790    0.00016579    0.00013774
     atom   66 type  2   force =    -0.00015218    0.00004477    0.00000901

     Total force =     0.541440     Total SCF correction =     0.001051


     Computing stress (Cartesian axis) and pressure


     negative rho (up, down):  5.070E-01 0.000E+00
          total   stress  (Ry/bohr**3)                   (kbar)     P=       -2.91
  -0.00002030   0.00000015  -0.00000072           -2.99        0.02       -0.11
   0.00000015  -0.00001909  -0.00000048            0.02       -2.81       -0.07
  -0.00000072  -0.00000048  -0.00001994           -0.11       -0.07       -2.93


     init_run     :      8.11s CPU      8.56s WALL (       1 calls)
     electrons    :     84.29s CPU     89.99s WALL (       1 calls)
     forces       :      5.60s CPU      5.92s WALL (       1 calls)
     stress       :     16.71s CPU     17.08s WALL (       1 calls)

     Called by init_run:
     wfcinit      :      3.09s CPU      3.29s WALL (       1 calls)
     potinit      :      1.30s CPU      1.38s WALL (       1 calls)
     hinit0       :      1.02s CPU      1.08s WALL (       1 calls)

     Called by electrons:
     c_bands      :     56.19s CPU     59.17s WALL (      10 calls)
     sum_band     :     16.18s CPU     17.46s WALL (      10 calls)
     v_of_rho     :      6.87s CPU      7.45s WALL (      11 calls)
     newd         :      3.59s CPU      4.45s WALL (      11 calls)
     PAW_pot      :      1.03s CPU      1.03s WALL (      11 calls)
     mix_rho      :      1.26s CPU      1.35s WALL (      10 calls)

     Called by c_bands:
     init_us_2    :      0.82s CPU      0.84s WALL (      21 calls)
     init_us_2:cp :      0.82s CPU      0.84s WALL (      21 calls)
     regterg      :     55.22s CPU     58.19s WALL (      10 calls)

     Called by *egterg:
     rdiaghg      :      0.21s CPU      0.21s WALL (      31 calls)
     h_psi        :     49.93s CPU     52.48s WALL (      32 calls)
     s_psi        :      1.36s CPU      1.36s WALL (      32 calls)
     g_psi        :      0.16s CPU      0.16s WALL (      21 calls)

     Called by h_psi:
     h_psi:calbec :      1.19s CPU      1.20s WALL (      32 calls)
     vloc_psi     :     46.93s CPU     49.44s WALL (      32 calls)
     add_vuspsi   :      1.34s CPU      1.35s WALL (      32 calls)

     General routines
     calbec       :      1.80s CPU      1.82s WALL (      47 calls)
     fft          :      4.10s CPU      4.69s WALL (     119 calls)
     ffts         :      0.28s CPU      0.32s WALL (      10 calls)
     fftw         :     40.41s CPU     43.27s WALL (    2882 calls)

     Parallel routines

     PWSCF        :   1m54.82s CPU   2m 1.72s WALL


   This run was terminated on:  11:18:20  27Mar2024            

=------------------------------------------------------------------------------=
   JOB DONE.
=------------------------------------------------------------------------------=
