
     Program PWSCF v.7.2 starts on 28Mar2024 at  0:59:57 

     This program is part of the open-source Quantum ESPRESSO suite
     for quantum simulation of materials; please cite
         "P. Giannozzi et al., J. Phys.:Condens. Matter 21 395502 (2009);
         "P. Giannozzi et al., J. Phys.:Condens. Matter 29 465901 (2017);
         "P. Giannozzi et al., J. Chem. Phys. 152 154105 (2020);
          URL http://www.quantum-espresso.org", 
     in publications or presentations arising from this work. More details at
     http://www.quantum-espresso.org/quote

     Parallel version (MPI), running on    32 processors

     MPI processes distributed on     1 nodes
     175042 MiB available memory on the printing compute node when the environment starts

     Reading input from pw-wt-477.in
Warning: card &CELL ignored
Warning: card / ignored

     Current dimensions of program PWSCF are:
     Max number of different atomic species (ntypx) = 10
     Max number of k-points (npk) =  40000
     Max angular momentum in pseudopotentials (lmaxx) =  4
     file O.pbe-n-kjpaw_psl.0.1.UPF: wavefunction(s)  2P renormalized

     IMPORTANT: XC functional enforced from input :
     Exchange-correlation= PBE
                           (   1   4   3   4   0   0   0)
     Any further DFT definition will be discarded
     Please, verify this is what you really want


     gamma-point specific algorithms are used

     R & G space division:  proc/nbgrp/npool/nimage =      32
     Subspace diagonalization in iterative solution of the eigenvalue problem:
     a serial algorithm will be used


     Parallelization info
     --------------------
     sticks:   dense  smooth     PW     G-vecs:    dense   smooth      PW
     Min        1707    1707    426               301015   301015   37634
     Max        1710    1710    428               301034   301034   37648
     Sum       54693   54693  13673              9632757  9632757 1204469

     Using Slab Decomposition



     bravais-lattice index     =            0
     lattice parameter (alat)  =      75.7119  a.u.
     unit-cell volume          =  434002.3113 (a.u.)^3
     number of atoms/cell      =           66
     number of atomic types    =            2
     number of electrons       =       176.00
     number of Kohn-Sham states=           88
     kinetic-energy cutoff     =      30.0000  Ry
     charge density cutoff     =     120.0000  Ry
     scf convergence threshold =      1.0E-06
     mixing beta               =       0.5000
     number of iterations used =            8  plain     mixing
     Exchange-correlation= PBE
                           (   1   4   3   4   0   0   0)

     celldm(1)=  75.711877  celldm(2)=   0.000000  celldm(3)=   0.000000
     celldm(4)=   0.000000  celldm(5)=   0.000000  celldm(6)=   0.000000

     crystal axes: (cart. coord. in units of alat)
               a(1) = (   1.000000   0.000000   0.000000 )  
               a(2) = (   0.000000   1.000000   0.000000 )  
               a(3) = (   0.000000   0.000000   1.000000 )  

     reciprocal axes: (cart. coord. in units 2 pi/alat)
               b(1) = (  1.000000  0.000000  0.000000 )  
               b(2) = (  0.000000  1.000000  0.000000 )  
               b(3) = (  0.000000  0.000000  1.000000 )  


     PseudoPot. # 1 for H  read from file:
     /share/pfaendtnergroup/rverma7/QE_PP/H.pbe-rrkjus_psl.1.0.0.UPF
     MD5 check sum: f52b6d4d1c606e5624b1dc7b2218f220
     Pseudo is Ultrasoft, Zval =  1.0
     Generated using "atomic" code by A. Dal Corso  v.5.1
     Using radial grid of  929 points,  2 beta functions with: 
                l(1) =   0
                l(2) =   0
     Q(r) pseudized with 0 coefficients 


     PseudoPot. # 2 for O  read from file:
     /share/pfaendtnergroup/rverma7/QE_PP/O.pbe-n-kjpaw_psl.0.1.UPF
     MD5 check sum: 0234752ac141de4415c5fc33072bef88
     Pseudo is Projector augmented-wave + core cor, Zval =  6.0
     Generated using "atomic" code by A. Dal Corso  v.5.0.99 svn rev. 10869
     Shape of augmentation charge: BESSEL
     Using radial grid of 1095 points,  4 beta functions with: 
                l(1) =   0
                l(2) =   0
                l(3) =   1
                l(4) =   1
     Q(r) pseudized with 0 coefficients 


     atomic species   valence    mass     pseudopotential
        H              1.00     1.00800     H ( 1.00)
        O              6.00    15.99900     O ( 1.00)

     No symmetry found



   Cartesian axes

     site n.     atom                  positions (alat units)
         1           H   tau(   1) = (   0.2113066   0.1336828   0.4384375  )
         2           H   tau(   2) = (   0.2247598   0.1623612   0.4620492  )
         3           H   tau(   3) = (   0.3079745   0.2769999   0.4750780  )
         4           H   tau(   4) = (   0.3097716   0.3160614   0.4868339  )
         5           H   tau(   5) = (   0.3104705   0.2167228   0.2842880  )
         6           H   tau(   6) = (   0.2739299   0.2170972   0.2643454  )
         7           H   tau(   7) = (   0.2313241   0.2222888   0.4785973  )
         8           H   tau(   8) = (   0.2288282   0.2000998   0.5112193  )
         9           H   tau(   9) = (   0.3367777   0.2116061   0.4582553  )
        10           H   tau(  10) = (   0.3465868   0.1762885   0.4787970  )
        11           H   tau(  11) = (   0.3704480   0.3777861   0.3822289  )
        12           H   tau(  12) = (   0.3532010   0.3445900   0.3630101  )
        13           H   tau(  13) = (   0.3228004   0.1305379   0.3465618  )
        14           H   tau(  14) = (   0.3111444   0.1533009   0.3787346  )
        15           H   tau(  15) = (   0.1676276   0.2921003   0.3440659  )
        16           H   tau(  16) = (   0.2028703   0.2962436   0.3617372  )
        17           H   tau(  17) = (   0.2553101   0.3205541   0.3706976  )
        18           H   tau(  18) = (   0.2614501   0.3019094   0.3369025  )
        19           H   tau(  19) = (   0.3450144   0.2698864   0.4375889  )
        20           H   tau(  20) = (   0.3109946   0.2469487   0.4311494  )
        21           H   tau(  21) = (   0.2909522   0.2746038   0.2916511  )
        22           H   tau(  22) = (   0.3082990   0.2748034   0.3250967  )
        23           H   tau(  23) = (   0.3463622   0.2789717   0.3876700  )
        24           H   tau(  24) = (   0.3589667   0.3157369   0.4007238  )
        25           H   tau(  25) = (   0.3674778   0.1721453   0.4188444  )
        26           H   tau(  26) = (   0.3610383   0.1583177   0.3820042  )
        27           H   tau(  27) = (   0.2885561   0.3352303   0.4149257  )
        28           H   tau(  28) = (   0.3083240   0.3470111   0.3853987  )
        29           H   tau(  29) = (   0.2558592   0.2764757   0.4872832  )
        30           H   tau(  30) = (   0.2306003   0.2661425   0.4567328  )
        31           H   tau(  31) = (   0.3329589   0.2354174   0.3462873  )
        32           H   tau(  32) = (   0.3023836   0.2470485   0.3698240  )
        33           H   tau(  33) = (   0.3278922   0.3137651   0.3223262  )
        34           H   tau(  34) = (   0.3646075   0.3051541   0.3289904  )
        35           H   tau(  35) = (   0.2656683   0.1509797   0.4217646  )
        36           H   tau(  36) = (   0.3062523   0.1624860   0.4287782  )
        37           H   tau(  37) = (   0.2547361   0.2364907   0.4026457  )
        38           H   tau(  38) = (   0.2771247   0.2069387   0.4145763  )
        39           H   tau(  39) = (   0.3300137   0.1877699   0.3363534  )
        40           H   tau(  40) = (   0.3638837   0.2073880   0.3255959  )
        41           H   tau(  41) = (   0.1903906   0.2337202   0.4194684  )
        42           H   tau(  42) = (   0.2022713   0.2590540   0.3882441  )
        43           H   tau(  43) = (   0.3968551   0.1899913   0.3655310  )
        44           H   tau(  44) = (   0.4082366   0.2271808   0.3584924  )
        45           O   tau(  45) = (   0.2323974   0.1438662   0.4445776  )
        46           O   tau(  46) = (   0.2947460   0.2952203   0.4876326  )
        47           O   tau(  47) = (   0.2941969   0.2304755   0.2706352  )
        48           O   tau(  48) = (   0.2243355   0.1981530   0.4865094  )
        49           O   tau(  49) = (   0.3374766   0.1840509   0.4565831  )
        50           O   tau(  50) = (   0.3569200   0.3561962   0.3861226  )
        51           O   tau(  51) = (   0.3264695   0.1530513   0.3565955  )
        52           O   tau(  52) = (   0.1819793   0.2822663   0.3623362  )
        53           O   tau(  53) = (   0.2416074   0.3069512   0.3536503  )
        54           O   tau(  54) = (   0.3292649   0.2519905   0.4492699  )
        55           O   tau(  55) = (   0.2957444   0.2906277   0.3093473  )
        56           O   tau(  56) = (   0.3592163   0.2912767   0.4060152  )
        57           O   tau(  57) = (   0.3780607   0.1704979   0.3959566  )
        58           O   tau(  58) = (   0.2856608   0.3379009   0.3905653  )
        59           O   tau(  59) = (   0.2363160   0.2609759   0.4801198  )
        60           O   tau(  60) = (   0.3226257   0.2569075   0.3584176  )
        61           O   tau(  61) = (   0.3495071   0.3238987   0.3332335  )
        62           O   tau(  62) = (   0.2885311   0.1578934   0.4104830  )
        63           O   tau(  63) = (   0.2784226   0.2320479   0.4106826  )
        64           O   tau(  64) = (   0.3382254   0.2069138   0.3201298  )
        65           O   tau(  65) = (   0.2113565   0.2427805   0.4064395  )
        66           O   tau(  66) = (   0.3990266   0.2072882   0.3457382  )

     number of k points=     1
                       cart. coord. in units 2pi/alat
        k(    1) = (   0.0000000   0.0000000   0.0000000), wk =   2.0000000

     Dense  grid:  4816379 G-vectors     FFT dimensions: ( 270, 270, 270)

     Estimated max dynamical RAM per process >     612.29 MB

     Estimated total dynamical RAM >      19.13 GB

     Check: negative core charge=   -0.000006

     Initial potential from superposition of free atoms

     starting charge     175.9995, renormalised to     176.0000

     negative rho (up, down):  3.726E-01 0.000E+00
     Starting wfcs are  132 randomized atomic wfcs
     Checking if some PAW data can be deallocated... 

     total cpu time spent up to now is        8.1 secs

     Self-consistent Calculation

     iteration #  1     ecut=    30.00 Ry     beta= 0.50
     Davidson diagonalization with overlap
     ethr =  1.00E-02,  avg # of iterations =  2.0

     negative rho (up, down):  4.376E-01 0.000E+00

     total cpu time spent up to now is       16.2 secs

     total energy              =    -965.90566841 Ry
     estimated scf accuracy    <       6.66809935 Ry

     iteration #  2     ecut=    30.00 Ry     beta= 0.50
     Davidson diagonalization with overlap
     ethr =  3.79E-03,  avg # of iterations =  2.0

     negative rho (up, down):  4.567E-01 0.000E+00

     total cpu time spent up to now is       24.5 secs

     total energy              =    -967.78306951 Ry
     estimated scf accuracy    <       0.95818469 Ry

     iteration #  3     ecut=    30.00 Ry     beta= 0.50
     Davidson diagonalization with overlap
     ethr =  5.44E-04,  avg # of iterations =  2.0

     negative rho (up, down):  4.993E-01 0.000E+00

     total cpu time spent up to now is       31.8 secs

     total energy              =    -967.82902153 Ry
     estimated scf accuracy    <       0.12756666 Ry

     iteration #  4     ecut=    30.00 Ry     beta= 0.50
     Davidson diagonalization with overlap
     ethr =  7.25E-05,  avg # of iterations =  3.0

     negative rho (up, down):  4.994E-01 0.000E+00

     total cpu time spent up to now is       40.6 secs

     total energy              =    -967.85404616 Ry
     estimated scf accuracy    <       0.04203313 Ry

     iteration #  5     ecut=    30.00 Ry     beta= 0.50
     Davidson diagonalization with overlap
     ethr =  2.39E-05,  avg # of iterations =  2.0

     negative rho (up, down):  4.985E-01 0.000E+00

     total cpu time spent up to now is       47.4 secs

     total energy              =    -967.85456147 Ry
     estimated scf accuracy    <       0.00860728 Ry

     iteration #  6     ecut=    30.00 Ry     beta= 0.50
     Davidson diagonalization with overlap
     ethr =  4.89E-06,  avg # of iterations =  2.0

     negative rho (up, down):  4.977E-01 0.000E+00

     total cpu time spent up to now is       54.2 secs

     total energy              =    -967.85460365 Ry
     estimated scf accuracy    <       0.00232820 Ry

     iteration #  7     ecut=    30.00 Ry     beta= 0.50
     Davidson diagonalization with overlap
     ethr =  1.32E-06,  avg # of iterations =  2.0

     negative rho (up, down):  4.971E-01 0.000E+00

     total cpu time spent up to now is       61.8 secs

     total energy              =    -967.85469111 Ry
     estimated scf accuracy    <       0.00046649 Ry

     iteration #  8     ecut=    30.00 Ry     beta= 0.50
     Davidson diagonalization with overlap
     ethr =  2.65E-07,  avg # of iterations =  2.0

     negative rho (up, down):  4.970E-01 0.000E+00

     total cpu time spent up to now is       70.0 secs

     total energy              =    -967.85480387 Ry
     estimated scf accuracy    <       0.00001884 Ry

     iteration #  9     ecut=    30.00 Ry     beta= 0.50
     Davidson diagonalization with overlap
     ethr =  1.07E-08,  avg # of iterations =  3.0

     negative rho (up, down):  4.971E-01 0.000E+00

     total cpu time spent up to now is       78.0 secs

     total energy              =    -967.85480386 Ry
     estimated scf accuracy    <       0.00001312 Ry

     iteration # 10     ecut=    30.00 Ry     beta= 0.50
     Davidson diagonalization with overlap
     ethr =  7.46E-09,  avg # of iterations =  2.0

     negative rho (up, down):  4.972E-01 0.000E+00

     total cpu time spent up to now is       85.0 secs

     total energy              =    -967.85480419 Ry
     estimated scf accuracy    <       0.00000186 Ry

     iteration # 11     ecut=    30.00 Ry     beta= 0.50
     Davidson diagonalization with overlap
     ethr =  1.06E-09,  avg # of iterations =  2.0

     negative rho (up, down):  4.972E-01 0.000E+00

     total cpu time spent up to now is       93.2 secs

     End of self-consistent calculation

          k = 0.0000 0.0000 0.0000 (602235 PWs)   bands (ev):

   -25.9154 -25.8402 -25.5186 -25.4314 -25.4021 -25.3008 -25.1474 -25.0657
   -25.0520 -25.0029 -24.8825 -24.8612 -24.7867 -24.7796 -24.7377 -24.6169
   -24.5096 -24.3853 -24.3168 -24.2737 -24.1591 -23.6605 -13.7944 -13.6510
   -13.2949 -13.2609 -13.2186 -13.1357 -13.0421 -12.9841 -12.9050 -12.8259
   -12.8032 -12.7399 -12.6591 -12.5944 -12.5460 -12.3868 -12.2670 -12.2173
   -12.1020 -12.0163 -11.9943 -11.7871 -11.3528 -10.9507 -10.7833 -10.6595
   -10.5679 -10.2508 -10.1494 -10.0263  -9.8559  -9.8233  -9.6536  -9.4817
    -9.4610  -9.1931  -9.0129  -8.9386  -8.8404  -8.5835  -8.5359  -8.4236
    -8.2593  -8.0735  -7.9848  -7.7749  -7.6745  -7.6367  -7.5625  -7.4749
    -7.4660  -7.4360  -7.4066  -7.3692  -7.2893  -7.2482  -7.2214  -7.1465
    -7.0911  -7.0305  -7.0160  -6.8651  -6.8342  -6.8135  -6.7942  -6.2696

     highest occupied level (ev):    -6.2696

!    total energy              =    -967.85480460 Ry
     estimated scf accuracy    <       0.00000003 Ry

     The total energy is the sum of the following terms:
     one-electron contribution =   -5903.71505308 Ry
     hartree contribution      =    2986.62832157 Ry
     xc contribution           =    -193.63895432 Ry
     ewald contribution        =    2352.18890707 Ry
     one-center paw contrib.   =    -209.31802584 Ry

     convergence has been achieved in  11 iterations

     negative rho (up, down):  4.972E-01 0.000E+00

     Forces acting on atoms (cartesian axes, Ry/au):

     atom    1 type  1   force =    -0.00852437   -0.01249859   -0.01379322
     atom    2 type  1   force =     0.04079118   -0.03072562   -0.03973601
     atom    3 type  1   force =    -0.00559250    0.02276353    0.00738165
     atom    4 type  1   force =    -0.05029399   -0.06721620    0.00457059
     atom    5 type  1   force =    -0.02808306    0.00766937   -0.01151837
     atom    6 type  1   force =     0.04831677    0.01506959    0.02081447
     atom    7 type  1   force =    -0.00842264   -0.04057135    0.02865003
     atom    8 type  1   force =    -0.01173595   -0.01141619   -0.05096038
     atom    9 type  1   force =     0.00323973   -0.08123385   -0.01488875
     atom   10 type  1   force =    -0.02208989    0.01697868   -0.04603933
     atom   11 type  1   force =    -0.04622404   -0.07538693    0.01010235
     atom   12 type  1   force =     0.01852889    0.01850827    0.01436190
     atom   13 type  1   force =     0.00376696    0.03180637    0.00968075
     atom   14 type  1   force =     0.00954094   -0.00294238   -0.05075926
     atom   15 type  1   force =     0.03023694   -0.02801566    0.04183227
     atom   16 type  1   force =     0.00879823    0.00055819   -0.02224727
     atom   17 type  1   force =    -0.03074279   -0.02460916   -0.03188467
     atom   18 type  1   force =    -0.07173071    0.00266111    0.03493322
     atom   19 type  1   force =    -0.03111051   -0.03925006    0.00608281
     atom   20 type  1   force =     0.03141631    0.01485977    0.04486418
     atom   21 type  1   force =    -0.00855657   -0.01532030   -0.03758456
     atom   22 type  1   force =    -0.02191840    0.00928499    0.01638075
     atom   23 type  1   force =     0.01314601    0.02189046    0.01760520
     atom   24 type  1   force =     0.00490645   -0.01490512    0.00827433
     atom   25 type  1   force =     0.01636917    0.01023612   -0.02761279
     atom   26 type  1   force =     0.01230785    0.01131526    0.00957987
     atom   27 type  1   force =    -0.01712419   -0.00708772   -0.00927610
     atom   28 type  1   force =    -0.01371223    0.00205289   -0.00952793
     atom   29 type  1   force =    -0.03758052   -0.03085453   -0.03043567
     atom   30 type  1   force =     0.00887686    0.00883665    0.00345566
     atom   31 type  1   force =    -0.02796618    0.03827295    0.00780633
     atom   32 type  1   force =     0.02440594    0.01437529    0.00113252
     atom   33 type  1   force =     0.03321079    0.03864010    0.01503004
     atom   34 type  1   force =     0.01469527    0.00735211    0.01056870
     atom   35 type  1   force =     0.04737399    0.00910793   -0.01298686
     atom   36 type  1   force =    -0.05110674   -0.00956971   -0.02394119
     atom   37 type  1   force =     0.01600986    0.00703439    0.02602108
     atom   38 type  1   force =     0.01526898    0.03491993   -0.01217979
     atom   39 type  1   force =     0.02186588    0.03149845   -0.05452993
     atom   40 type  1   force =    -0.03765197   -0.00348811   -0.00816747
     atom   41 type  1   force =     0.08534461    0.03984343   -0.06196826
     atom   42 type  1   force =    -0.00525944   -0.05172198    0.04294477
     atom   43 type  1   force =    -0.00821584    0.04669219   -0.03830605
     atom   44 type  1   force =    -0.02411201   -0.03957019   -0.03520354
     atom   45 type  2   force =    -0.02056239    0.05517312    0.05699129
     atom   46 type  2   force =     0.05534172    0.04393877   -0.01051260
     atom   47 type  2   force =    -0.01721699   -0.01565277   -0.00233221
     atom   48 type  2   force =     0.01627257    0.02552382    0.02703807
     atom   49 type  2   force =     0.02063591    0.06949996    0.04209151
     atom   50 type  2   force =     0.02285762    0.06694863   -0.01771286
     atom   51 type  2   force =    -0.04058073   -0.04250372    0.04790356
     atom   52 type  2   force =    -0.04005897    0.03626198   -0.03394094
     atom   53 type  2   force =     0.09866096    0.01598740   -0.01779157
     atom   54 type  2   force =    -0.00645572    0.00887113   -0.04095689
     atom   55 type  2   force =     0.01396642    0.00477726    0.02943677
     atom   56 type  2   force =    -0.00754534   -0.01662710   -0.01493441
     atom   57 type  2   force =    -0.02058752   -0.02643450    0.03059218
     atom   58 type  2   force =     0.04451331    0.02228427    0.04164040
     atom   59 type  2   force =     0.02605074    0.03967018    0.00994432
     atom   60 type  2   force =     0.00114119   -0.05345122    0.00407418
     atom   61 type  2   force =    -0.04699227   -0.03949500   -0.05955512
     atom   62 type  2   force =     0.00977133    0.01228548    0.05494059
     atom   63 type  2   force =    -0.02971191   -0.05030092   -0.02592418
     atom   64 type  2   force =     0.02221267   -0.03694680    0.04813105
     atom   65 type  2   force =    -0.08314374   -0.00090297    0.02301506
     atom   66 type  2   force =     0.04076808    0.00524864    0.06933572
     The non-local contrib.  to forces
     atom    1 type  1   force =     0.09776732    0.04889524    0.02895559
     atom    2 type  1   force =     0.02043059   -0.05468864   -0.05204488
     atom    3 type  1   force =    -0.04213793    0.06272498    0.04083195
     atom    4 type  1   force =    -0.05115095   -0.07383373    0.00120220
     atom    5 type  1   force =    -0.06487316    0.04862368   -0.05216145
     atom    6 type  1   force =     0.08146598    0.04963661    0.02705771
     atom    7 type  1   force =    -0.01995117   -0.06953328    0.02443144
     atom    8 type  1   force =    -0.01661356   -0.00649342   -0.09580502
     atom    9 type  1   force =     0.00204699   -0.06395718   -0.00248085
     atom   10 type  1   force =    -0.03495733    0.03168046   -0.08481475
     atom   11 type  1   force =    -0.04675581   -0.07518522    0.01105946
     atom   12 type  1   force =     0.01196253    0.03444504    0.06577969
     atom   13 type  1   force =     0.01369396    0.09186052    0.04246185
     atom   14 type  1   force =     0.03912700   -0.00242069   -0.05701700
     atom   15 type  1   force =     0.05600706   -0.03642371    0.06922645
     atom   16 type  1   force =    -0.08125910   -0.05224779    0.00106171
     atom   17 type  1   force =    -0.04581379   -0.04633610   -0.05810666
     atom   18 type  1   force =    -0.05887464    0.01537814    0.05100410
     atom   19 type  1   force =    -0.04593617   -0.05124785    0.03130187
     atom   20 type  1   force =     0.05770589    0.01646306    0.05503707
     atom   21 type  1   force =     0.02266564    0.07346971    0.08118731
     atom   22 type  1   force =    -0.04261130    0.05320860   -0.05418369
     atom   23 type  1   force =     0.04486378    0.04628072    0.06449480
     atom   24 type  1   force =    -0.00159722   -0.09719865    0.01856067
     atom   25 type  1   force =     0.03869579   -0.00736478   -0.08821159
     atom   26 type  1   force =     0.06357771    0.04681815    0.05591188
     atom   27 type  1   force =    -0.01092230    0.01202919   -0.10473659
     atom   28 type  1   force =    -0.09172131   -0.03753774    0.02178567
     atom   29 type  1   force =    -0.06436761   -0.05115321   -0.02676845
     atom   30 type  1   force =     0.02724196   -0.02014167    0.10217862
     atom   31 type  1   force =    -0.02825012    0.05417936    0.03138751
     atom   32 type  1   force =     0.07825528    0.03647670   -0.04523256
     atom   33 type  1   force =     0.06694683    0.02914186    0.03418938
     atom   34 type  1   force =    -0.06858338    0.08338498    0.01939352
     atom   35 type  1   force =     0.06779187    0.02033481   -0.03098936
     atom   36 type  1   force =    -0.06198088   -0.01661954   -0.06078295
     atom   37 type  1   force =     0.08798593   -0.01748219    0.02963443
     atom   38 type  1   force =     0.00357522    0.09328931   -0.01459549
     atom   39 type  1   force =     0.02584911    0.05650945   -0.04698988
     atom   40 type  1   force =    -0.07806377   -0.00251015   -0.01476443
     atom   41 type  1   force =     0.06469652    0.02980184   -0.04244573
     atom   42 type  1   force =     0.02680892   -0.05238319    0.05957220
     atom   43 type  1   force =     0.00611090    0.05308553   -0.05852967
     atom   44 type  1   force =    -0.03530458   -0.07505927   -0.04649678
     atom   45 type  2   force =    -1.91807125    0.36425701    0.31852139
     atom   46 type  2   force =     1.71924366    0.39062880   -0.83594554
     atom   47 type  2   force =    -0.49815335   -1.95743988    0.54865032
     atom   48 type  2   force =     0.73467822    1.22375737    1.19721528
     atom   49 type  2   force =     0.62337137    0.78800754    1.60342460
     atom   50 type  2   force =     0.68269085    0.84016465   -1.50718958
     atom   51 type  2   force =    -0.98301654   -1.51633321    0.42056008
     atom   52 type  2   force =     0.29256433    1.49198936   -1.23709939
     atom   53 type  2   force =     1.78270786    0.44401889    0.09974528
     atom   54 type  2   force =    -0.18538902    0.54959718   -1.50212516
     atom   55 type  2   force =     0.48020933   -1.81895195   -0.24676854
     atom   56 type  2   force =    -0.98105916    0.77480510   -1.29092949
     atom   57 type  2   force =    -1.72146003   -0.60243614    0.51668298
     atom   58 type  2   force =     1.64264540    0.34933651    1.36026567
     atom   59 type  2   force =     0.87882272    1.12421132   -1.31412142
     atom   60 type  2   force =    -0.75567411   -1.60073808    0.07935259
     atom   61 type  2   force =    -0.11990743   -1.81472781   -0.62832727
     atom   62 type  2   force =    -0.01920027   -0.11954213    1.60505100
     atom   63 type  2   force =    -1.34714808   -1.26396038   -0.29672215
     atom   64 type  2   force =     0.85964456   -0.84422654    1.29887209
     atom   65 type  2   force =    -1.86499823    0.37056948   -0.15942234
     atom   66 type  2   force =     0.30535776    0.46944113    1.94314157
     The ionic contribution  to forces
     atom    1 type  1   force =    -4.48332743   -3.26426996   -0.71060671
     atom    2 type  1   force =    -2.10455287   -0.14181923    2.49033756
     atom    3 type  1   force =     1.61635779   -0.72377338    1.28143253
     atom    4 type  1   force =     2.12273271    4.17141716    1.86818305
     atom    5 type  1   force =     1.58354808   -2.41087404   -1.13559410
     atom    6 type  1   force =    -3.54929135   -2.38896638   -2.88024077
     atom    7 type  1   force =    -0.68127815    1.18232002    0.84516474
     atom    8 type  1   force =    -0.35294846   -0.58175353    5.30251198
     atom    9 type  1   force =     1.35715918    1.10764968    2.31841626
     atom   10 type  1   force =     2.25660734   -2.25862960    4.81751177
     atom   11 type  1   force =     2.84029798    4.73062289   -0.26647222
     atom   12 type  1   force =     1.03873279    1.63433235   -2.17591687
     atom   13 type  1   force =    -0.41236494   -5.36628950   -2.53810642
     atom   14 type  1   force =    -1.30615514   -2.30497396    0.81566331
     atom   15 type  1   force =    -3.91734615    1.74929570   -3.21323595
     atom   16 type  1   force =    -0.13347591    2.59607653   -0.60485419
     atom   17 type  1   force =    -0.49309380    3.05349435    1.31084458
     atom   18 type  1   force =     0.21289185    0.75086870   -2.96264125
     atom   19 type  1   force =     3.10680048    2.05700494    1.04593928
     atom   20 type  1   force =    -1.00838541   -0.15825512   -0.35324303
     atom   21 type  1   force =    -1.37869080   -1.12943016   -4.76487971
     atom   22 type  1   force =     0.99495957   -0.94587526   -0.59634014
     atom   23 type  1   force =     0.51209506   -0.53172822   -1.48093911
     atom   24 type  1   force =     1.90306154    3.78204072    0.58187930
     atom   25 type  1   force =     0.91487963   -1.30301528    3.50066855
     atom   26 type  1   force =    -0.01522826   -3.53976247   -1.36343997
     atom   27 type  1   force =    -0.32040258    1.79063694    4.31161944
     atom   28 type  1   force =     2.12512360    3.61115801   -0.47007054
     atom   29 type  1   force =     0.64980604    2.42951383    2.91151579
     atom   30 type  1   force =    -2.42186111    1.79877589   -1.68765913
     atom   31 type  1   force =     1.65214406   -1.64466351   -1.60484244
     atom   32 type  1   force =    -2.69513904   -1.24143673    0.52653028
     atom   33 type  1   force =    -1.08854272    1.16671581   -2.91143673
     atom   34 type  1   force =     4.20311100   -1.44480799   -2.22980020
     atom   35 type  1   force =    -2.55570552   -2.71394821    0.85522290
     atom   36 type  1   force =     1.80669162   -1.77617656    2.77389559
     atom   37 type  1   force =    -3.48773846    0.16465352   -1.23260066
     atom   38 type  1   force =    -1.01121526   -3.55473632    0.68848246
     atom   39 type  1   force =    -0.76160505   -2.80020279   -0.36812445
     atom   40 type  1   force =     3.64409746   -0.61950405   -1.80655073
     atom   41 type  1   force =    -4.68427574   -1.43502739    1.70599320
     atom   42 type  1   force =    -2.65338649    1.20056648   -1.61791453
     atom   43 type  1   force =     2.62730691   -2.36678888    1.12135515
     atom   44 type  1   force =     3.74406580    2.63661303    1.06405194
     atom   45 type  2   force =    -4.83148055  -12.35030821    2.93006999
     atom   46 type  2   force =    -1.63901059    8.58914780   14.50855534
     atom   47 type  2   force =    -2.64268378   -0.28997641  -15.64967560
     atom   48 type  2   force =    -9.10610626   -7.31404828    9.20392580
     atom   49 type  2   force =     5.88487993   -9.08872352    9.62108036
     atom   50 type  2   force =     7.18040960   14.08243001    4.91939955
     atom   51 type  2   force =     1.67512944  -12.24220534   -7.61972349
     atom   52 type  2   force =   -15.18469743    0.74075583   -2.75124566
     atom   53 type  2   force =   -11.70168914    7.44839740   -6.17085324
     atom   54 type  2   force =     7.92665749    0.36816650   13.35726825
     atom   55 type  2   force =    -4.17382686    9.63597203  -13.76029361
     atom   56 type  2   force =    14.29881268    4.44824324    7.16050547
     atom   57 type  2   force =    15.10748659   -8.35268573    3.05056511
     atom   58 type  2   force =    -6.61740933   13.47919994    0.85472387
     atom   59 type  2   force =    -9.46386928    3.53085691   13.06649341
     atom   60 type  2   force =     4.06233869    2.89214433   -3.80756954
     atom   61 type  2   force =     8.50878647   12.66686948   -9.43740355
     atom   62 type  2   force =    -3.20979262  -12.71661409   -1.49455950
     atom   63 type  2   force =    -2.69107157   -0.24487292    1.45075296
     atom   64 type  2   force =     2.58281638   -4.91201873  -14.62402552
     atom   65 type  2   force =   -10.43354563   -2.66354440    0.74796374
     atom   66 type  2   force =    15.07140591   -2.67423388   -8.71766393
     The local contribution  to forces
     atom    1 type  1   force =     4.37706836    3.20295105    0.66786501
     atom    2 type  1   force =     2.12494140    0.16585290   -2.47802402
     atom    3 type  1   force =    -1.57978518    0.68388674   -1.31487369
     atom    4 type  1   force =    -2.12184944   -4.16473034   -1.86480579
     atom    5 type  1   force =    -1.54672621    2.36998931    1.17624403
     atom    6 type  1   force =     3.51617048    2.35447257    2.87400315
     atom    7 type  1   force =     0.69283577   -1.15328276   -0.84093848
     atom    8 type  1   force =     0.35785436    0.57690353   -5.25766124
     atom    9 type  1   force =    -1.35593750   -1.12485536   -2.33081631
     atom   10 type  1   force =    -2.24371184    2.24399748   -4.77872902
     atom   11 type  1   force =    -2.83973300   -4.73074795    0.26552129
     atom   12 type  1   force =    -1.03213514   -1.65020215    2.12449538
     atom   13 type  1   force =     0.40247037    5.30632333    2.50533534
     atom   14 type  1   force =     1.27660215    2.30452353   -0.80940743
     atom   15 type  1   force =     3.89160122   -1.74081439    3.18584520
     atom   16 type  1   force =     0.22356408   -2.54319458    0.58155060
     atom   17 type  1   force =     0.50820086   -3.03168860   -1.28461243
     atom   18 type  1   force =    -0.22571218   -0.76351230    2.94656982
     atom   19 type  1   force =    -3.09194431   -2.04493274   -1.07115376
     atom   20 type  1   force =     0.98212160    0.15672504    0.34307578
     atom   21 type  1   force =     1.34749565    1.04072043    4.64611642
     atom   22 type  1   force =    -0.97424505    0.90203057    0.66690097
     atom   23 type  1   force =    -0.54377785    0.50741532    1.43406140
     atom   24 type  1   force =    -1.89652387   -3.69968243   -0.59215529
     atom   25 type  1   force =    -0.93717610    1.32068645   -3.44006703
     atom   26 type  1   force =    -0.03601166    3.50433354    1.31710978
     atom   27 type  1   force =     0.31422480   -1.80968083   -4.21615716
     atom   28 type  1   force =    -2.04709089   -3.57149475    0.43876285
     atom   29 type  1   force =    -0.62299143   -2.40914310   -2.91517772
     atom   30 type  1   force =     2.40352595   -1.76972733    1.58894439
     atom   31 type  1   force =    -1.65182647    1.62882567    1.58126510
     atom   32 type  1   force =     2.64131579    1.21940738   -0.48015473
     atom   33 type  1   force =     1.05483735   -1.15714200    2.89228277
     atom   34 type  1   force =    -4.11980566    1.36885615    2.22098379
     atom   35 type  1   force =     2.53531845    2.70279237   -0.83721513
     atom   36 type  1   force =    -1.79579442    1.78329430   -2.73704764
     atom   37 type  1   force =     3.41579534   -0.14006556    1.22899815
     atom   38 type  1   force =     1.02293402    3.49644393   -0.68605984
     atom   39 type  1   force =     0.75765487    2.77525621    0.36058912
     atom   40 type  1   force =    -3.60365509    0.61859489    1.81315224
     atom   41 type  1   force =     4.70494870    1.44513936   -1.72550654
     atom   42 type  1   force =     2.62134247   -1.19983223    1.60129183
     atom   43 type  1   force =    -2.64160603    2.36046998   -1.10112947
     atom   44 type  1   force =    -3.73284708   -2.60105908   -1.05275878
     atom   45 type  2   force =     6.70952628   12.04470604   -3.18854491
     atom   46 type  2   force =    -0.00761173   -8.93085239  -13.69060543
     atom   47 type  2   force =     3.11817949    2.21120917   15.10317099
     atom   48 type  2   force =     8.39503655    6.12667818  -10.36188966
     atom   49 type  2   force =    -6.48082232    8.37831535  -11.16566323
     atom   50 type  2   force =    -7.83308246  -14.84616403   -3.44419806
     atom   51 type  2   force =    -0.74333785   13.69969437    7.25061748
     atom   52 type  2   force =    14.85311546   -2.18188776    3.94136703
     atom   53 type  2   force =    10.03489924   -7.87162952    6.05354252
     atom   54 type  2   force =    -7.74884412   -0.90393781  -11.91090398
     atom   55 type  2   force =     3.71268221   -7.82927337   14.03394387
     atom   56 type  2   force =   -13.33405787   -5.23135844   -5.89715085
     atom   57 type  2   force =   -13.42262834    8.92225939   -3.53056878
     atom   58 type  2   force =     5.03547630  -13.80283784   -2.15980708
     atom   59 type  2   force =     8.62021188   -4.60320498  -11.75518641
     atom   60 type  2   force =    -3.31326603   -1.36082448    3.73358362
     atom   61 type  2   force =    -8.43743120  -10.90975715    9.99952918
     atom   62 type  2   force =     3.23856707   12.84690824   -0.03871155
     atom   63 type  2   force =     3.99421447    1.44588925   -1.18299645
     atom   64 type  2   force =    -3.41170172    5.71122363   13.38515546
     atom   65 type  2   force =    12.19534192    2.29572505   -0.56592915
     atom   66 type  2   force =   -15.33193465    2.21535036    6.86316351
     The core correction contribution to forces
     atom    1 type  1   force =     0.00000000    0.00000000    0.00000000
     atom    2 type  1   force =     0.00000000    0.00000000    0.00000000
     atom    3 type  1   force =     0.00000000    0.00000000    0.00000000
     atom    4 type  1   force =     0.00000000    0.00000000    0.00000000
     atom    5 type  1   force =     0.00000000    0.00000000    0.00000000
     atom    6 type  1   force =     0.00000000    0.00000000    0.00000000
     atom    7 type  1   force =     0.00000000    0.00000000    0.00000000
     atom    8 type  1   force =     0.00000000    0.00000000    0.00000000
     atom    9 type  1   force =     0.00000000    0.00000000    0.00000000
     atom   10 type  1   force =     0.00000000    0.00000000    0.00000000
     atom   11 type  1   force =     0.00000000    0.00000000    0.00000000
     atom   12 type  1   force =     0.00000000    0.00000000    0.00000000
     atom   13 type  1   force =     0.00000000    0.00000000    0.00000000
     atom   14 type  1   force =     0.00000000    0.00000000    0.00000000
     atom   15 type  1   force =     0.00000000    0.00000000    0.00000000
     atom   16 type  1   force =     0.00000000    0.00000000    0.00000000
     atom   17 type  1   force =     0.00000000    0.00000000    0.00000000
     atom   18 type  1   force =     0.00000000    0.00000000    0.00000000
     atom   19 type  1   force =     0.00000000    0.00000000    0.00000000
     atom   20 type  1   force =     0.00000000    0.00000000    0.00000000
     atom   21 type  1   force =     0.00000000    0.00000000    0.00000000
     atom   22 type  1   force =     0.00000000    0.00000000    0.00000000
     atom   23 type  1   force =     0.00000000    0.00000000    0.00000000
     atom   24 type  1   force =     0.00000000    0.00000000    0.00000000
     atom   25 type  1   force =     0.00000000    0.00000000    0.00000000
     atom   26 type  1   force =     0.00000000    0.00000000    0.00000000
     atom   27 type  1   force =     0.00000000    0.00000000    0.00000000
     atom   28 type  1   force =     0.00000000    0.00000000    0.00000000
     atom   29 type  1   force =     0.00000000    0.00000000    0.00000000
     atom   30 type  1   force =     0.00000000    0.00000000    0.00000000
     atom   31 type  1   force =     0.00000000    0.00000000    0.00000000
     atom   32 type  1   force =     0.00000000    0.00000000    0.00000000
     atom   33 type  1   force =     0.00000000    0.00000000    0.00000000
     atom   34 type  1   force =     0.00000000    0.00000000    0.00000000
     atom   35 type  1   force =     0.00000000    0.00000000    0.00000000
     atom   36 type  1   force =     0.00000000    0.00000000    0.00000000
     atom   37 type  1   force =     0.00000000    0.00000000    0.00000000
     atom   38 type  1   force =     0.00000000    0.00000000    0.00000000
     atom   39 type  1   force =     0.00000000    0.00000000    0.00000000
     atom   40 type  1   force =     0.00000000    0.00000000    0.00000000
     atom   41 type  1   force =     0.00000000    0.00000000    0.00000000
     atom   42 type  1   force =     0.00000000    0.00000000    0.00000000
     atom   43 type  1   force =     0.00000000    0.00000000    0.00000000
     atom   44 type  1   force =     0.00000000    0.00000000    0.00000000
     atom   45 type  2   force =     0.01947252   -0.00341447   -0.00306966
     atom   46 type  2   force =    -0.01724504   -0.00490099    0.00749808
     atom   47 type  2   force =     0.00545309    0.02063328   -0.00448410
     atom   48 type  2   force =    -0.00730454   -0.01078344   -0.01216867
     atom   49 type  2   force =    -0.00676656   -0.00805621   -0.01672905
     atom   50 type  2   force =    -0.00710032   -0.00939291    0.01427781
     atom   51 type  2   force =     0.01069888    0.01641838   -0.00359439
     atom   52 type  2   force =    -0.00104590   -0.01452326    0.01302494
     atom   53 type  2   force =    -0.01717982   -0.00470703   -0.00023046
     atom   54 type  2   force =     0.00115461   -0.00486547    0.01479199
     atom   55 type  2   force =    -0.00512259    0.01712232    0.00249014
     atom   56 type  2   force =     0.00882500   -0.00820507    0.01266056
     atom   57 type  2   force =     0.01604912    0.00647997   -0.00613067
     atom   58 type  2   force =    -0.01622828   -0.00335109   -0.01354885
     atom   59 type  2   force =    -0.00906799   -0.01212024    0.01272363
     atom   60 type  2   force =     0.00779918    0.01606307   -0.00126826
     atom   61 type  2   force =     0.00161967    0.01821485    0.00666530
     atom   62 type  2   force =     0.00017653    0.00155570   -0.01680699
     atom   63 type  2   force =     0.01428485    0.01274480    0.00305264
     atom   64 type  2   force =    -0.00848002    0.00810993   -0.01189389
     atom   65 type  2   force =     0.02005625   -0.00360293    0.00043086
     atom   66 type  2   force =    -0.00403313   -0.00521924   -0.01931728
     The Hubbard contrib.    to forces
     atom    1 type  1   force =     0.00000000    0.00000000    0.00000000
     atom    2 type  1   force =     0.00000000    0.00000000    0.00000000
     atom    3 type  1   force =     0.00000000    0.00000000    0.00000000
     atom    4 type  1   force =     0.00000000    0.00000000    0.00000000
     atom    5 type  1   force =     0.00000000    0.00000000    0.00000000
     atom    6 type  1   force =     0.00000000    0.00000000    0.00000000
     atom    7 type  1   force =     0.00000000    0.00000000    0.00000000
     atom    8 type  1   force =     0.00000000    0.00000000    0.00000000
     atom    9 type  1   force =     0.00000000    0.00000000    0.00000000
     atom   10 type  1   force =     0.00000000    0.00000000    0.00000000
     atom   11 type  1   force =     0.00000000    0.00000000    0.00000000
     atom   12 type  1   force =     0.00000000    0.00000000    0.00000000
     atom   13 type  1   force =     0.00000000    0.00000000    0.00000000
     atom   14 type  1   force =     0.00000000    0.00000000    0.00000000
     atom   15 type  1   force =     0.00000000    0.00000000    0.00000000
     atom   16 type  1   force =     0.00000000    0.00000000    0.00000000
     atom   17 type  1   force =     0.00000000    0.00000000    0.00000000
     atom   18 type  1   force =     0.00000000    0.00000000    0.00000000
     atom   19 type  1   force =     0.00000000    0.00000000    0.00000000
     atom   20 type  1   force =     0.00000000    0.00000000    0.00000000
     atom   21 type  1   force =     0.00000000    0.00000000    0.00000000
     atom   22 type  1   force =     0.00000000    0.00000000    0.00000000
     atom   23 type  1   force =     0.00000000    0.00000000    0.00000000
     atom   24 type  1   force =     0.00000000    0.00000000    0.00000000
     atom   25 type  1   force =     0.00000000    0.00000000    0.00000000
     atom   26 type  1   force =     0.00000000    0.00000000    0.00000000
     atom   27 type  1   force =     0.00000000    0.00000000    0.00000000
     atom   28 type  1   force =     0.00000000    0.00000000    0.00000000
     atom   29 type  1   force =     0.00000000    0.00000000    0.00000000
     atom   30 type  1   force =     0.00000000    0.00000000    0.00000000
     atom   31 type  1   force =     0.00000000    0.00000000    0.00000000
     atom   32 type  1   force =     0.00000000    0.00000000    0.00000000
     atom   33 type  1   force =     0.00000000    0.00000000    0.00000000
     atom   34 type  1   force =     0.00000000    0.00000000    0.00000000
     atom   35 type  1   force =     0.00000000    0.00000000    0.00000000
     atom   36 type  1   force =     0.00000000    0.00000000    0.00000000
     atom   37 type  1   force =     0.00000000    0.00000000    0.00000000
     atom   38 type  1   force =     0.00000000    0.00000000    0.00000000
     atom   39 type  1   force =     0.00000000    0.00000000    0.00000000
     atom   40 type  1   force =     0.00000000    0.00000000    0.00000000
     atom   41 type  1   force =     0.00000000    0.00000000    0.00000000
     atom   42 type  1   force =     0.00000000    0.00000000    0.00000000
     atom   43 type  1   force =     0.00000000    0.00000000    0.00000000
     atom   44 type  1   force =     0.00000000    0.00000000    0.00000000
     atom   45 type  2   force =     0.00000000    0.00000000    0.00000000
     atom   46 type  2   force =     0.00000000    0.00000000    0.00000000
     atom   47 type  2   force =     0.00000000    0.00000000    0.00000000
     atom   48 type  2   force =     0.00000000    0.00000000    0.00000000
     atom   49 type  2   force =     0.00000000    0.00000000    0.00000000
     atom   50 type  2   force =     0.00000000    0.00000000    0.00000000
     atom   51 type  2   force =     0.00000000    0.00000000    0.00000000
     atom   52 type  2   force =     0.00000000    0.00000000    0.00000000
     atom   53 type  2   force =     0.00000000    0.00000000    0.00000000
     atom   54 type  2   force =     0.00000000    0.00000000    0.00000000
     atom   55 type  2   force =     0.00000000    0.00000000    0.00000000
     atom   56 type  2   force =     0.00000000    0.00000000    0.00000000
     atom   57 type  2   force =     0.00000000    0.00000000    0.00000000
     atom   58 type  2   force =     0.00000000    0.00000000    0.00000000
     atom   59 type  2   force =     0.00000000    0.00000000    0.00000000
     atom   60 type  2   force =     0.00000000    0.00000000    0.00000000
     atom   61 type  2   force =     0.00000000    0.00000000    0.00000000
     atom   62 type  2   force =     0.00000000    0.00000000    0.00000000
     atom   63 type  2   force =     0.00000000    0.00000000    0.00000000
     atom   64 type  2   force =     0.00000000    0.00000000    0.00000000
     atom   65 type  2   force =     0.00000000    0.00000000    0.00000000
     atom   66 type  2   force =     0.00000000    0.00000000    0.00000000
     The SCF correction term to forces
     atom    1 type  1   force =    -0.00000372   -0.00000241   -0.00000027
     atom    2 type  1   force =     0.00000096    0.00000186    0.00000217
     atom    3 type  1   force =     0.00000173   -0.00000231   -0.00000231
     atom    4 type  1   force =     0.00000258    0.00000321   -0.00000203
     atom    5 type  1   force =    -0.00000287    0.00000292   -0.00000001
     atom    6 type  1   force =     0.00000056   -0.00000071    0.00000123
     atom    7 type  1   force =    -0.00000019   -0.00000283   -0.00000083
     atom    8 type  1   force =     0.00000060   -0.00000027    0.00000075
     atom    9 type  1   force =    -0.00000005    0.00000152   -0.00000101
     atom   10 type  1   force =     0.00000084    0.00000286   -0.00000049
     atom   11 type  1   force =    -0.00000431   -0.00000414    0.00000067
     atom   12 type  1   force =    -0.00000239    0.00000553    0.00001055
     atom   13 type  1   force =    -0.00000352   -0.00001548   -0.00000317
     atom   14 type  1   force =    -0.00000417    0.00000124    0.00000870
     atom   15 type  1   force =     0.00000371   -0.00000075    0.00000341
     atom   16 type  1   force =    -0.00000195   -0.00000348    0.00000144
     atom   17 type  1   force =    -0.00000715   -0.00000629   -0.00000332
     atom   18 type  1   force =    -0.00000683   -0.00000092    0.00000739
     atom   19 type  1   force =    -0.00000161   -0.00000191    0.00000226
     atom   20 type  1   force =     0.00000313   -0.00000070    0.00000120
     atom   21 type  1   force =     0.00000185   -0.00000778   -0.00000173
     atom   22 type  1   force =     0.00000728   -0.00000642    0.00001046
     atom   23 type  1   force =    -0.00000609   -0.00000487   -0.00000504
     atom   24 type  1   force =    -0.00000510    0.00000774   -0.00000351
     atom   25 type  1   force =    -0.00000126    0.00000223    0.00000414
     atom   26 type  1   force =    -0.00000105   -0.00000146    0.00000501
     atom   27 type  1   force =     0.00000479   -0.00000052    0.00000505
     atom   28 type  1   force =     0.00000527   -0.00000013    0.00000093
     atom   29 type  1   force =     0.00000138    0.00000046    0.00000154
     atom   30 type  1   force =    -0.00000103    0.00000227   -0.00000137
     atom   31 type  1   force =    -0.00000475    0.00000393    0.00000300
     atom   32 type  1   force =     0.00000281    0.00000045   -0.00000363
     atom   33 type  1   force =    -0.00000177   -0.00000306    0.00000146
     atom   34 type  1   force =     0.00000221   -0.00000852   -0.00000156
     atom   35 type  1   force =    -0.00000191    0.00000146    0.00000157
     atom   36 type  1   force =     0.00000585    0.00000459    0.00000065
     atom   37 type  1   force =    -0.00000405    0.00000112   -0.00000400
     atom   38 type  1   force =     0.00000390   -0.00000448   -0.00000008
     atom   39 type  1   force =    -0.00000415    0.00000808    0.00000212
     atom   40 type  1   force =    -0.00000167    0.00000372    0.00000229
     atom   41 type  1   force =     0.00000403    0.00000212   -0.00000235
     atom   42 type  1   force =     0.00000456   -0.00000054    0.00000212
     atom   43 type  1   force =     0.00000128   -0.00000192    0.00000478
     atom   44 type  1   force =     0.00000275    0.00000763    0.00000691
     atom   45 type  2   force =     0.00001951    0.00000525    0.00002133
     atom   46 type  2   force =    -0.00000567   -0.00001196   -0.00000820
     atom   47 type  2   force =     0.00001645   -0.00000642    0.00001304
     atom   48 type  2   force =    -0.00000250   -0.00000750   -0.00003784
     atom   49 type  2   force =     0.00000240    0.00002930   -0.00001433
     atom   50 type  2   force =    -0.00003114   -0.00001659    0.00000426
     atom   51 type  2   force =    -0.00002576   -0.00000542    0.00005072
     atom   52 type  2   force =     0.00003347    0.00000031    0.00001899
     atom   53 type  2   force =    -0.00004827   -0.00001984    0.00001117
     atom   54 type  2   force =    -0.00000578   -0.00001677    0.00001886
     atom   55 type  2   force =     0.00005323   -0.00001928    0.00007174
     atom   56 type  2   force =    -0.00003709   -0.00003942   -0.00001325
     atom   57 type  2   force =    -0.00000596    0.00002052    0.00005038
     atom   58 type  2   force =     0.00005811    0.00000925    0.00001364
     atom   59 type  2   force =    -0.00001768   -0.00000033    0.00004195
     atom   60 type  2   force =    -0.00002764   -0.00002356   -0.00001738
     atom   61 type  2   force =    -0.00003089   -0.00002186   -0.00001193
     atom   62 type  2   force =     0.00004951    0.00005027   -0.00002552
     atom   63 type  2   force =     0.00003732   -0.00002918   -0.00000434
     atom   64 type  2   force =    -0.00003763    0.00003742    0.00002975
     atom   65 type  2   force =     0.00003084    0.00002233   -0.00002121
     atom   66 type  2   force =     0.00000108   -0.00001723    0.00001870

     Total force =     0.459786     Total SCF correction =     0.000231


     Computing stress (Cartesian axis) and pressure


     negative rho (up, down):  4.972E-01 0.000E+00
          total   stress  (Ry/bohr**3)                   (kbar)     P=       -2.88
  -0.00001970  -0.00000057   0.00000017           -2.90       -0.08        0.03
  -0.00000057  -0.00001967  -0.00000019           -0.08       -2.89       -0.03
   0.00000017  -0.00000019  -0.00001945            0.03       -0.03       -2.86


     init_run     :      7.59s CPU      7.99s WALL (       1 calls)
     electrons    :     79.93s CPU     85.11s WALL (       1 calls)
     forces       :      6.39s CPU      6.67s WALL (       1 calls)
     stress       :     16.99s CPU     17.33s WALL (       1 calls)

     Called by init_run:
     wfcinit      :      2.78s CPU      2.93s WALL (       1 calls)
     potinit      :      1.30s CPU      1.36s WALL (       1 calls)
     hinit0       :      1.04s CPU      1.11s WALL (       1 calls)

     Called by electrons:
     c_bands      :     53.23s CPU     55.79s WALL (      11 calls)
     sum_band     :     14.91s CPU     16.11s WALL (      11 calls)
     v_of_rho     :      7.05s CPU      7.58s WALL (      12 calls)
     newd         :      3.21s CPU      4.10s WALL (      12 calls)
     PAW_pot      :      1.17s CPU      1.17s WALL (      12 calls)
     mix_rho      :      1.15s CPU      1.23s WALL (      11 calls)

     Called by c_bands:
     init_us_2    :      0.73s CPU      0.75s WALL (      23 calls)
     init_us_2:cp :      0.73s CPU      0.75s WALL (      23 calls)
     regterg      :     52.25s CPU     54.80s WALL (      11 calls)

     Called by *egterg:
     rdiaghg      :      0.25s CPU      0.25s WALL (      35 calls)
     h_psi        :     46.69s CPU     48.81s WALL (      36 calls)
     s_psi        :      1.52s CPU      1.52s WALL (      36 calls)
     g_psi        :      0.15s CPU      0.15s WALL (      24 calls)

     Called by h_psi:
     h_psi:calbec :      1.46s CPU      1.46s WALL (      36 calls)
     vloc_psi     :     43.32s CPU     45.41s WALL (      36 calls)
     add_vuspsi   :      1.52s CPU      1.52s WALL (      36 calls)

     General routines
     calbec       :      2.26s CPU      2.27s WALL (      52 calls)
     fft          :      4.07s CPU      4.62s WALL (     128 calls)
     ffts         :      0.26s CPU      0.30s WALL (      11 calls)
     fftw         :     37.90s CPU     40.30s WALL (    3152 calls)

     Parallel routines

     PWSCF        :   1m51.04s CPU   1m57.33s WALL


   This run was terminated on:   1: 1:55  28Mar2024            

=------------------------------------------------------------------------------=
   JOB DONE.
=------------------------------------------------------------------------------=
