
     Program PWSCF v.7.2 starts on 27Mar2024 at  9:27:34 

     This program is part of the open-source Quantum ESPRESSO suite
     for quantum simulation of materials; please cite
         "P. Giannozzi et al., J. Phys.:Condens. Matter 21 395502 (2009);
         "P. Giannozzi et al., J. Phys.:Condens. Matter 29 465901 (2017);
         "P. Giannozzi et al., J. Chem. Phys. 152 154105 (2020);
          URL http://www.quantum-espresso.org", 
     in publications or presentations arising from this work. More details at
     http://www.quantum-espresso.org/quote

     Parallel version (MPI), running on    32 processors

     MPI processes distributed on     1 nodes
     170134 MiB available memory on the printing compute node when the environment starts

     Reading input from pw-wt-205.in
Warning: card &CELL ignored
Warning: card / ignored

     Current dimensions of program PWSCF are:
     Max number of different atomic species (ntypx) = 10
     Max number of k-points (npk) =  40000
     Max angular momentum in pseudopotentials (lmaxx) =  4
     file O.pbe-n-kjpaw_psl.0.1.UPF: wavefunction(s)  2P renormalized

     IMPORTANT: XC functional enforced from input :
     Exchange-correlation= PBE
                           (   1   4   3   4   0   0   0)
     Any further DFT definition will be discarded
     Please, verify this is what you really want


     gamma-point specific algorithms are used

     R & G space division:  proc/nbgrp/npool/nimage =      32
     Subspace diagonalization in iterative solution of the eigenvalue problem:
     a serial algorithm will be used


     Parallelization info
     --------------------
     sticks:   dense  smooth     PW     G-vecs:    dense   smooth      PW
     Min        1707    1707    426               301015   301015   37634
     Max        1710    1710    428               301034   301034   37648
     Sum       54693   54693  13673              9632757  9632757 1204469

     Using Slab Decomposition



     bravais-lattice index     =            0
     lattice parameter (alat)  =      75.7119  a.u.
     unit-cell volume          =  434002.3113 (a.u.)^3
     number of atoms/cell      =           66
     number of atomic types    =            2
     number of electrons       =       176.00
     number of Kohn-Sham states=           88
     kinetic-energy cutoff     =      30.0000  Ry
     charge density cutoff     =     120.0000  Ry
     scf convergence threshold =      1.0E-06
     mixing beta               =       0.5000
     number of iterations used =            8  plain     mixing
     Exchange-correlation= PBE
                           (   1   4   3   4   0   0   0)

     celldm(1)=  75.711877  celldm(2)=   0.000000  celldm(3)=   0.000000
     celldm(4)=   0.000000  celldm(5)=   0.000000  celldm(6)=   0.000000

     crystal axes: (cart. coord. in units of alat)
               a(1) = (   1.000000   0.000000   0.000000 )  
               a(2) = (   0.000000   1.000000   0.000000 )  
               a(3) = (   0.000000   0.000000   1.000000 )  

     reciprocal axes: (cart. coord. in units 2 pi/alat)
               b(1) = (  1.000000  0.000000  0.000000 )  
               b(2) = (  0.000000  1.000000  0.000000 )  
               b(3) = (  0.000000  0.000000  1.000000 )  


     PseudoPot. # 1 for H  read from file:
     /share/pfaendtnergroup/rverma7/QE_PP/H.pbe-rrkjus_psl.1.0.0.UPF
     MD5 check sum: f52b6d4d1c606e5624b1dc7b2218f220
     Pseudo is Ultrasoft, Zval =  1.0
     Generated using "atomic" code by A. Dal Corso  v.5.1
     Using radial grid of  929 points,  2 beta functions with: 
                l(1) =   0
                l(2) =   0
     Q(r) pseudized with 0 coefficients 


     PseudoPot. # 2 for O  read from file:
     /share/pfaendtnergroup/rverma7/QE_PP/O.pbe-n-kjpaw_psl.0.1.UPF
     MD5 check sum: 0234752ac141de4415c5fc33072bef88
     Pseudo is Projector augmented-wave + core cor, Zval =  6.0
     Generated using "atomic" code by A. Dal Corso  v.5.0.99 svn rev. 10869
     Shape of augmentation charge: BESSEL
     Using radial grid of 1095 points,  4 beta functions with: 
                l(1) =   0
                l(2) =   0
                l(3) =   1
                l(4) =   1
     Q(r) pseudized with 0 coefficients 


     atomic species   valence    mass     pseudopotential
        H              1.00     1.00800     H ( 1.00)
        O              6.00    15.99900     O ( 1.00)

     No symmetry found



   Cartesian axes

     site n.     atom                  positions (alat units)
         1           H   tau(   1) = (   0.2096843   0.2837639   0.4774991  )
         2           H   tau(   2) = (   0.2169225   0.2693623   0.4435542  )
         3           H   tau(   3) = (   0.3672283   0.2317484   0.4831649  )
         4           H   tau(   4) = (   0.3561213   0.2646949   0.4587046  )
         5           H   tau(   5) = (   0.3409709   0.2178460   0.4049420  )
         6           H   tau(   6) = (   0.3686509   0.2230126   0.4324473  )
         7           H   tau(   7) = (   0.2625983   0.2225633   0.3135155  )
         8           H   tau(   8) = (   0.2619244   0.1852989   0.3258455  )
         9           H   tau(   9) = (   0.2074878   0.2150505   0.4730313  )
        10           H   tau(  10) = (   0.2051416   0.1868464   0.4437539  )
        11           H   tau(  11) = (   0.2560589   0.2513416   0.4713341  )
        12           H   tau(  12) = (   0.2798203   0.2214402   0.4628978  )
        13           H   tau(  13) = (   0.3598902   0.1551728   0.3010608  )
        14           H   tau(  14) = (   0.3562711   0.1799825   0.3270935  )
        15           H   tau(  15) = (   0.2617497   0.3379259   0.4017721  )
        16           H   tau(  16) = (   0.2386123   0.3047298   0.3999251  )
        17           H   tau(  17) = (   0.3886934   0.2751529   0.2455260  )
        18           H   tau(  18) = (   0.3605391   0.2592537   0.2705354  )
        19           H   tau(  19) = (   0.3863721   0.1901410   0.3768376  )
        20           H   tau(  20) = (   0.4001747   0.2137277   0.3488581  )
        21           H   tau(  21) = (   0.3368776   0.2112317   0.2956945  )
        22           H   tau(  22) = (   0.2970922   0.2148758   0.2897292  )
        23           H   tau(  23) = (   0.3685511   0.2872582   0.4072632  )
        24           H   tau(  24) = (   0.3830026   0.2851866   0.3685012  )
        25           H   tau(  25) = (   0.2726320   0.1502309   0.5022339  )
        26           H   tau(  26) = (   0.2471983   0.1747410   0.4811681  )
        27           H   tau(  27) = (   0.2854112   0.1607138   0.4428554  )
        28           H   tau(  28) = (   0.3228753   0.1680769   0.4325222  )
        29           H   tau(  29) = (   0.2914764   0.2220142   0.3665793  )
        30           H   tau(  30) = (   0.2864096   0.1882441   0.3890428  )
        31           H   tau(  31) = (   0.1640085   0.2654686   0.3354798  )
        32           H   tau(  32) = (   0.2008237   0.2541370   0.3229502  )
        33           H   tau(  33) = (   0.3062274   0.2755772   0.4537876  )
        34           H   tau(  34) = (   0.3189567   0.3068014   0.4329215  )
        35           H   tau(  35) = (   0.3932360   0.2609510   0.3147385  )
        36           H   tau(  36) = (   0.4255585   0.2798453   0.3308873  )
        37           H   tau(  37) = (   0.3178585   0.2468489   0.3297891  )
        38           H   tau(  38) = (   0.3369525   0.2662424   0.3612879  )
        39           H   tau(  39) = (   0.1952577   0.3508798   0.4910271  )
        40           H   tau(  40) = (   0.1904156   0.3328591   0.4509672  )
        41           H   tau(  41) = (   0.2433296   0.2451766   0.3892175  )
        42           H   tau(  42) = (   0.2080619   0.2645202   0.3767628  )
        43           H   tau(  43) = (   0.3280170   0.3251466   0.3880943  )
        44           H   tau(  44) = (   0.3220017   0.3523275   0.4157244  )
        45           O   tau(  45) = (   0.2179708   0.2627231   0.4672657  )
        46           O   tau(  46) = (   0.3760889   0.2463247   0.4638213  )
        47           O   tau(  47) = (   0.3613378   0.2067390   0.4141770  )
        48           O   tau(  48) = (   0.2585049   0.2000250   0.3048796  )
        49           O   tau(  49) = (   0.2122551   0.1909148   0.4673406  )
        50           O   tau(  50) = (   0.2807188   0.2468489   0.4638962  )
        51           O   tau(  51) = (   0.3452140   0.1741171   0.3055285  )
        52           O   tau(  52) = (   0.2372644   0.3288906   0.4091102  )
        53           O   tau(  53) = (   0.3863222   0.2669662   0.2689380  )
        54           O   tau(  54) = (   0.3893922   0.1910396   0.3520280  )
        55           O   tau(  55) = (   0.3191314   0.2288531   0.2896294  )
        56           O   tau(  56) = (   0.3692749   0.2989891   0.3854986  )
        57           O   tau(  57) = (   0.2727069   0.1696992   0.4856608  )
        58           O   tau(  58) = (   0.2989392   0.1682017   0.4230126  )
        59           O   tau(  59) = (   0.2743791   0.2042930   0.3725696  )
        60           O   tau(  60) = (   0.1880444   0.2616249   0.3439661  )
        61           O   tau(  61) = (   0.3262199   0.2847872   0.4419568  )
        62           O   tau(  62) = (   0.4046924   0.2650443   0.3375265  )
        63           O   tau(  63) = (   0.3160364   0.2523899   0.3555472  )
        64           O   tau(  64) = (   0.1895919   0.3301635   0.4769749  )
        65           O   tau(  65) = (   0.2266317   0.2624984   0.3950580  )
        66           O   tau(  66) = (   0.3112941   0.3380007   0.4004493  )

     number of k points=     1
                       cart. coord. in units 2pi/alat
        k(    1) = (   0.0000000   0.0000000   0.0000000), wk =   2.0000000

     Dense  grid:  4816379 G-vectors     FFT dimensions: ( 270, 270, 270)

     Estimated max dynamical RAM per process >     612.29 MB

     Estimated total dynamical RAM >      19.13 GB

     Check: negative core charge=   -0.000006

     Initial potential from superposition of free atoms

     starting charge     175.9995, renormalised to     176.0000

     negative rho (up, down):  3.703E-01 0.000E+00
     Starting wfcs are  132 randomized atomic wfcs
     Checking if some PAW data can be deallocated... 

     total cpu time spent up to now is        8.8 secs

     Self-consistent Calculation

     iteration #  1     ecut=    30.00 Ry     beta= 0.50
     Davidson diagonalization with overlap
     ethr =  1.00E-02,  avg # of iterations =  2.0

     negative rho (up, down):  4.370E-01 0.000E+00

     total cpu time spent up to now is       17.9 secs

     total energy              =    -965.67464326 Ry
     estimated scf accuracy    <       7.00625159 Ry

     iteration #  2     ecut=    30.00 Ry     beta= 0.50
     Davidson diagonalization with overlap
     ethr =  3.98E-03,  avg # of iterations =  2.0

     negative rho (up, down):  4.567E-01 0.000E+00

     total cpu time spent up to now is       27.3 secs

     total energy              =    -967.64422195 Ry
     estimated scf accuracy    <       1.06931132 Ry

     iteration #  3     ecut=    30.00 Ry     beta= 0.50
     Davidson diagonalization with overlap
     ethr =  6.08E-04,  avg # of iterations =  2.0

     negative rho (up, down):  5.003E-01 0.000E+00

     total cpu time spent up to now is       35.7 secs

     total energy              =    -967.70340123 Ry
     estimated scf accuracy    <       0.13507402 Ry

     iteration #  4     ecut=    30.00 Ry     beta= 0.50
     Davidson diagonalization with overlap
     ethr =  7.67E-05,  avg # of iterations =  3.0

     negative rho (up, down):  5.013E-01 0.000E+00

     total cpu time spent up to now is       45.5 secs

     total energy              =    -967.72802692 Ry
     estimated scf accuracy    <       0.04040279 Ry

     iteration #  5     ecut=    30.00 Ry     beta= 0.50
     Davidson diagonalization with overlap
     ethr =  2.30E-05,  avg # of iterations =  2.0

     negative rho (up, down):  5.003E-01 0.000E+00

     total cpu time spent up to now is       53.4 secs

     total energy              =    -967.72852222 Ry
     estimated scf accuracy    <       0.00789113 Ry

     iteration #  6     ecut=    30.00 Ry     beta= 0.50
     Davidson diagonalization with overlap
     ethr =  4.48E-06,  avg # of iterations =  2.0

     negative rho (up, down):  4.997E-01 0.000E+00

     total cpu time spent up to now is       61.6 secs

     total energy              =    -967.72885988 Ry
     estimated scf accuracy    <       0.00152671 Ry

     iteration #  7     ecut=    30.00 Ry     beta= 0.50
     Davidson diagonalization with overlap
     ethr =  8.67E-07,  avg # of iterations =  2.0

     negative rho (up, down):  4.994E-01 0.000E+00

     total cpu time spent up to now is       70.2 secs

     total energy              =    -967.72897503 Ry
     estimated scf accuracy    <       0.00027083 Ry

     iteration #  8     ecut=    30.00 Ry     beta= 0.50
     Davidson diagonalization with overlap
     ethr =  1.54E-07,  avg # of iterations =  2.0

     negative rho (up, down):  4.993E-01 0.000E+00

     total cpu time spent up to now is       79.5 secs

     total energy              =    -967.72903725 Ry
     estimated scf accuracy    <       0.00002160 Ry

     iteration #  9     ecut=    30.00 Ry     beta= 0.50
     Davidson diagonalization with overlap
     ethr =  1.23E-08,  avg # of iterations =  2.0

     negative rho (up, down):  4.994E-01 0.000E+00

     total cpu time spent up to now is       88.5 secs

     total energy              =    -967.72903779 Ry
     estimated scf accuracy    <       0.00001049 Ry

     iteration # 10     ecut=    30.00 Ry     beta= 0.50
     Davidson diagonalization with overlap
     ethr =  5.96E-09,  avg # of iterations =  2.0

     negative rho (up, down):  4.994E-01 0.000E+00

     total cpu time spent up to now is       96.9 secs

     End of self-consistent calculation

          k = 0.0000 0.0000 0.0000 (602235 PWs)   bands (ev):

   -26.0989 -25.9407 -25.6960 -25.6671 -25.4781 -25.3853 -25.2463 -25.1060
   -24.8768 -24.7678 -24.7367 -24.7105 -24.6308 -24.4548 -24.3709 -24.3538
   -24.3366 -24.0687 -23.9561 -23.8053 -23.4825 -23.1257 -13.7871 -13.7046
   -13.4953 -13.4361 -13.1642 -13.1513 -13.0353 -12.9977 -12.8231 -12.8123
   -12.7853 -12.7123 -12.5481 -12.4114 -12.2690 -12.1361 -12.0731 -11.8483
   -11.7997 -11.7378 -11.6926 -11.2237 -10.7479 -10.6376 -10.5940 -10.5340
   -10.1114  -9.9819  -9.8997  -9.7192  -9.6414  -9.3985  -9.3505  -9.0454
    -8.9866  -8.9513  -8.8328  -8.6727  -8.5500  -8.4140  -8.2994  -8.2637
    -8.1848  -8.0361  -7.9831  -7.8036  -7.6679  -7.6460  -7.6119  -7.4489
    -7.2571  -7.2370  -7.2092  -7.1755  -7.0951  -7.0158  -6.9263  -6.8334
    -6.8213  -6.7681  -6.6844  -6.6430  -6.3520  -6.3329  -6.1280  -5.8106

     highest occupied level (ev):    -5.8106

!    total energy              =    -967.72903855 Ry
     estimated scf accuracy    <       0.00000080 Ry

     The total energy is the sum of the following terms:
     one-electron contribution =   -5741.49892033 Ry
     hartree contribution      =    2906.62592644 Ry
     xc contribution           =    -193.43847320 Ry
     ewald contribution        =    2269.92004484 Ry
     one-center paw contrib.   =    -209.33761631 Ry

     convergence has been achieved in  10 iterations

     negative rho (up, down):  4.994E-01 0.000E+00

     Forces acting on atoms (cartesian axes, Ry/au):

     atom    1 type  1   force =     0.00059105   -0.00073458    0.01471086
     atom    2 type  1   force =     0.01360780   -0.02085231   -0.02681815
     atom    3 type  1   force =     0.02311976    0.05321380   -0.06026335
     atom    4 type  1   force =     0.06073602   -0.05853022    0.02114304
     atom    5 type  1   force =     0.02574001   -0.01651465    0.00645261
     atom    6 type  1   force =     0.00156070   -0.01154872   -0.00011920
     atom    7 type  1   force =    -0.01237459   -0.00505122    0.01693909
     atom    8 type  1   force =    -0.00102751    0.05542880   -0.04115014
     atom    9 type  1   force =     0.00795410   -0.02477817   -0.02478904
     atom   10 type  1   force =     0.01126972    0.01788881    0.03598369
     atom   11 type  1   force =     0.05602978    0.01297397   -0.02472164
     atom   12 type  1   force =     0.02483129    0.05653640   -0.00205735
     atom   13 type  1   force =    -0.00139612   -0.00958345   -0.02912936
     atom   14 type  1   force =     0.00380695    0.02068688    0.01889462
     atom   15 type  1   force =    -0.11301134   -0.04288059    0.03877611
     atom   16 type  1   force =    -0.00835074    0.04432935    0.02355382
     atom   17 type  1   force =    -0.00467723   -0.01140852    0.03272996
     atom   18 type  1   force =     0.10421885    0.02984610   -0.01580729
     atom   19 type  1   force =    -0.01310426    0.01025690   -0.00917395
     atom   20 type  1   force =    -0.02100937   -0.03999054    0.00346142
     atom   21 type  1   force =    -0.04212890    0.01011919   -0.02579632
     atom   22 type  1   force =     0.05844255    0.02001469   -0.00450538
     atom   23 type  1   force =     0.00373502   -0.00123366   -0.02113281
     atom   24 type  1   force =    -0.01684105    0.02415890    0.03814638
     atom   25 type  1   force =    -0.00076149    0.05592220   -0.04531639
     atom   26 type  1   force =     0.05596041   -0.00622442    0.00842060
     atom   27 type  1   force =     0.01098907    0.01578018   -0.00970076
     atom   28 type  1   force =    -0.06332460    0.01156166   -0.03937357
     atom   29 type  1   force =    -0.00868120   -0.02012397    0.01826414
     atom   30 type  1   force =    -0.02941366    0.04030405   -0.02524316
     atom   31 type  1   force =     0.07523687   -0.01097372    0.02837705
     atom   32 type  1   force =    -0.03695909    0.01987697    0.06336059
     atom   33 type  1   force =    -0.00302236   -0.02374950   -0.00753363
     atom   34 type  1   force =     0.00410719   -0.01360905   -0.00256924
     atom   35 type  1   force =     0.03920001    0.02406648    0.04439365
     atom   36 type  1   force =    -0.08914686   -0.06437539    0.02427448
     atom   37 type  1   force =     0.00225749    0.01118565    0.05456033
     atom   38 type  1   force =    -0.05985652   -0.03146496   -0.00688578
     atom   39 type  1   force =    -0.01206244   -0.05371213   -0.07791647
     atom   40 type  1   force =     0.01786990    0.02738898    0.10384232
     atom   41 type  1   force =    -0.00982930   -0.00417621   -0.00676946
     atom   42 type  1   force =     0.06253044   -0.02269645    0.04189388
     atom   43 type  1   force =     0.02727883   -0.00359253   -0.00673360
     atom   44 type  1   force =     0.04378993    0.04848129    0.03297285
     atom   45 type  2   force =    -0.03548874    0.02019349    0.01198003
     atom   46 type  2   force =    -0.08254130    0.02173795    0.05003183
     atom   47 type  2   force =    -0.02442538    0.00811903   -0.01594065
     atom   48 type  2   force =     0.00179948   -0.03411425    0.02674280
     atom   49 type  2   force =    -0.02302264    0.01307105   -0.01349082
     atom   50 type  2   force =    -0.07293309   -0.07478368    0.03619822
     atom   51 type  2   force =     0.01448815   -0.03247258    0.01929508
     atom   52 type  2   force =     0.11684763   -0.00298297   -0.05702799
     atom   53 type  2   force =    -0.11637436   -0.02743931   -0.01144055
     atom   54 type  2   force =     0.03212295    0.03577584    0.01509475
     atom   55 type  2   force =    -0.01283930   -0.00837174    0.01370082
     atom   56 type  2   force =     0.00874288   -0.02175688   -0.02571452
     atom   57 type  2   force =    -0.05816578   -0.05445741    0.03691988
     atom   58 type  2   force =     0.06314239   -0.02772464    0.04847181
     atom   59 type  2   force =     0.01923185   -0.02023258    0.01581730
     atom   60 type  2   force =    -0.05645604   -0.01042507   -0.11327436
     atom   61 type  2   force =     0.01397627    0.02518506    0.00631875
     atom   62 type  2   force =     0.05705864    0.04143897   -0.07259847
     atom   63 type  2   force =     0.06093513    0.03153060   -0.06168006
     atom   64 type  2   force =     0.00378488    0.01959772   -0.02966060
     atom   65 type  2   force =    -0.03623968    0.01835596   -0.00833653
     atom   66 type  2   force =    -0.06152907   -0.03246084   -0.02905215
     The non-local contrib.  to forces
     atom    1 type  1   force =     0.03504067   -0.08863286   -0.04378175
     atom    2 type  1   force =     0.00363824   -0.02732255    0.10427545
     atom    3 type  1   force =     0.02824480    0.05136205   -0.06700757
     atom    4 type  1   force =     0.04379991   -0.04332551    0.01268474
     atom    5 type  1   force =     0.08306922   -0.04357930    0.03876817
     atom    6 type  1   force =    -0.02707029   -0.05405093   -0.06253819
     atom    7 type  1   force =    -0.01755571   -0.10128193   -0.03652837
     atom    8 type  1   force =    -0.01128850    0.05281578   -0.07240617
     atom    9 type  1   force =     0.01747845   -0.09356524   -0.02507202
     atom   10 type  1   force =     0.02838564    0.01965455    0.09586793
     atom   11 type  1   force =     0.07557318   -0.01509827   -0.02327191
     atom   12 type  1   force =     0.00228621    0.09447217    0.00377365
     atom   13 type  1   force =    -0.06526261    0.08617296    0.02034552
     atom   14 type  1   force =    -0.04434888   -0.02428802   -0.08716092
     atom   15 type  1   force =    -0.06626836   -0.02564920    0.01933413
     atom   16 type  1   force =    -0.00288441    0.08128452    0.02992823
     atom   17 type  1   force =    -0.01229381   -0.03387500    0.09539115
     atom   18 type  1   force =     0.07280639    0.02288145   -0.00692003
     atom   19 type  1   force =     0.01360247    0.00520669   -0.10058964
     atom   20 type  1   force =    -0.04167543   -0.08602173    0.01381164
     atom   21 type  1   force =    -0.06105765    0.05832475   -0.01932510
     atom   22 type  1   force =     0.07059766    0.04411999    0.00110445
     atom   23 type  1   force =     0.00536974    0.04723436   -0.09439107
     atom   24 type  1   force =    -0.04588768    0.04380961    0.05895047
     atom   25 type  1   force =    -0.00225209    0.06969914   -0.05989080
     atom   26 type  1   force =     0.07508798   -0.01690254    0.01460416
     atom   27 type  1   force =     0.05359682    0.02863032   -0.07666240
     atom   28 type  1   force =    -0.08520267   -0.00073832   -0.03105864
     atom   29 type  1   force =    -0.06093442   -0.06613457    0.02246931
     atom   30 type  1   force =    -0.03710724    0.05398413   -0.05406049
     atom   31 type  1   force =     0.08474167   -0.01410424    0.02727232
     atom   32 type  1   force =    -0.04784870    0.02721958    0.07340328
     atom   33 type  1   force =     0.07762970    0.03799841   -0.04634838
     atom   34 type  1   force =     0.02945257   -0.08848673    0.03817538
     atom   35 type  1   force =     0.04075036    0.01537599    0.07878079
     atom   36 type  1   force =    -0.06557028   -0.04599607    0.01846520
     atom   37 type  1   force =    -0.00315646    0.01718240    0.07658506
     atom   38 type  1   force =    -0.07132862   -0.04883208   -0.02248190
     atom   39 type  1   force =    -0.01911626   -0.07073396   -0.05409180
     atom   40 type  1   force =    -0.00204797   -0.00409246    0.08582862
     atom   41 type  1   force =    -0.07268070    0.07317599    0.02153157
     atom   42 type  1   force =     0.05901299   -0.00895862    0.05405270
     atom   43 type  1   force =    -0.07297416    0.06042002    0.05814942
     atom   44 type  1   force =    -0.05329679   -0.07835409   -0.08289622
     atom   45 type  2   force =    -0.53615920    1.72263187   -0.79017514
     atom   46 type  2   force =    -1.82101115   -0.20135822    0.94843498
     atom   47 type  2   force =    -0.97246554    1.68323493    0.31249414
     atom   48 type  2   force =     0.66566690    0.77931006    1.99151414
     atom   49 type  2   force =    -0.67295749    1.31089741   -1.34450321
     atom   50 type  2   force =    -1.31806613   -1.35612985    0.39026338
     atom   51 type  2   force =     1.81461792   -0.83580941    0.93118380
     atom   52 type  2   force =     1.58811415   -0.91862123   -1.01748584
     atom   53 type  2   force =    -1.49739751    0.13638589   -1.56335293
     atom   54 type  2   force =     0.41224719    1.49322295    1.35008558
     atom   55 type  2   force =    -0.22040592   -1.67582133    0.53232338
     atom   56 type  2   force =     0.68293321   -1.80627714    0.47437180
     atom   57 type  2   force =    -1.52325712   -1.22436711    0.81960466
     atom   58 type  2   force =     0.65951811   -0.47884864    1.80325762
     atom   59 type  2   force =     1.75627965    0.14551055    0.53112325
     atom   60 type  2   force =    -0.75851381   -0.22520171   -1.99936512
     atom   61 type  2   force =    -1.34454775    0.92962335    0.32639703
     atom   62 type  2   force =     0.56135688    0.79891063   -1.85302394
     atom   63 type  2   force =     1.48953543    0.44576964   -1.11664618
     atom   64 type  2   force =     0.58171767    1.81743379   -0.85581592
     atom   65 type  2   force =     0.04884194   -0.98555047   -1.44846727
     atom   66 type  2   force =     2.07806400    0.19352077    0.44337516
     The ionic contribution  to forces
     atom    1 type  1   force =    -2.31647333    2.97709069    3.12888467
     atom    2 type  1   force =    -2.00293465    1.25235414   -2.03744950
     atom    3 type  1   force =     0.48974708   -2.10276071    4.52109299
     atom    4 type  1   force =     0.43504242    1.92913551    1.89383758
     atom    5 type  1   force =    -1.50739104    0.48062867   -0.69177888
     atom    6 type  1   force =     2.63181265    0.50048435    2.55824462
     atom    7 type  1   force =    -1.13307399    2.94071670   -0.77163955
     atom    8 type  1   force =    -1.07411737   -3.66046606    0.79811180
     atom    9 type  1   force =    -2.60864075    1.78978607    2.15828662
     atom   10 type  1   force =    -2.86567941   -2.03273569   -2.80518116
     atom   11 type  1   force =    -2.22685555    0.62749853    2.90612645
     atom   12 type  1   force =     0.03343629   -3.27622782    1.49479086
     atom   13 type  1   force =     2.76373197   -4.73672762   -2.12116349
     atom   14 type  1   force =     1.73507833   -1.28769249    1.46903551
     atom   15 type  1   force =     1.31096434    3.18430887   -0.96419211
     atom   16 type  1   force =    -0.79195915   -0.47730911   -1.40353718
     atom   17 type  1   force =     1.20486900    1.73747061   -4.86076705
     atom   18 type  1   force =    -1.86601526    0.07391337   -2.03299913
     atom   19 type  1   force =     1.79800107   -1.93038338    2.95619404
     atom   20 type  1   force =     3.59334360    1.64610206   -0.82434928
     atom   21 type  1   force =     2.29502183   -1.74594443   -1.67176083
     atom   22 type  1   force =    -2.51168420   -1.60995427   -2.68084537
     atom   23 type  1   force =     2.01351332   -0.11175076    3.18023932
     atom   24 type  1   force =     3.04324980    0.21671980   -1.66049482
     atom   25 type  1   force =     0.02094957   -3.97830403    3.74443009
     atom   26 type  1   force =    -2.80379607   -1.34359290    1.39998020
     atom   27 type  1   force =    -1.66010503   -3.32765013    2.52965450
     atom   28 type  1   force =     3.48840435   -2.35116712    1.97450931
     atom   29 type  1   force =     0.97887983    0.98370460   -1.00580184
     atom   30 type  1   force =     0.41628396   -3.30686048    0.94881547
     atom   31 type  1   force =    -4.75433557    0.75289327   -1.92361326
     atom   32 type  1   force =    -0.05114090   -0.65273687   -4.04940513
     atom   33 type  1   force =    -1.68574635    0.46888636    3.00766897
     atom   34 type  1   force =    -0.37312468    4.19749696    0.51993583
     atom   35 type  1   force =     0.42392745    0.08533222   -3.26209415
     atom   36 type  1   force =     4.50013855    2.49986019   -1.24808773
     atom   37 type  1   force =     0.08740356    0.53737166   -3.49716620
     atom   38 type  1   force =     2.51181034    2.34758997   -0.29353056
     atom   39 type  1   force =    -0.17594111    3.80903806    2.85829632
     atom   40 type  1   force =    -1.59581654    1.78537055   -2.30686622
     atom   41 type  1   force =     0.69491656   -2.14376584   -1.04096665
     atom   42 type  1   force =    -3.43808439    0.65440694   -1.78155800
     atom   43 type  1   force =     2.32336077    0.81167519   -2.34652627
     atom   44 type  1   force =     2.11126598    4.88915285    2.82180808
     atom   45 type  2   force =    -9.21941606   -0.57539519   10.90789613
     atom   46 type  2   force =    14.60614453    0.77444974   10.85340873
     atom   47 type  2   force =    10.90278271  -10.54000686    3.89663013
     atom   48 type  2   force =   -10.31633087   -7.87335066  -14.07851675
     atom   49 type  2   force =   -10.45238840   -9.69943766    7.63041441
     atom   50 type  2   force =     2.00316684    2.17978692   10.89917632
     atom   51 type  2   force =     0.41589588  -11.33469270  -10.78804009
     atom   52 type  2   force =    -8.23622566   14.33728531    0.55416141
     atom   53 type  2   force =     8.24206523    3.83070571   -9.30955830
     atom   54 type  2   force =    11.74224092  -11.04500916   -4.13966232
     atom   55 type  2   force =    -0.62445615    4.41799272  -15.42853560
     atom   56 type  2   force =     9.28180118   13.22105893   -1.20435652
     atom   57 type  2   force =     2.22649946   -8.14749299   10.65662148
     atom   58 type  2   force =    -0.10561985  -13.44067270   -0.12642103
     atom   59 type  2   force =    -9.35843010   -8.55698590   -3.45683589
     atom   60 type  2   force =   -11.08810183    2.01619396   -5.13831854
     atom   61 type  2   force =     6.41034266    6.74318888    8.30501561
     atom   62 type  2   force =    12.54085039    2.94441011   -1.47294088
     atom   63 type  2   force =    -1.95612638    4.54993991   -3.68173585
     atom   64 type  2   force =    -8.81747688    5.50745963    7.66289895
     atom   65 type  2   force =    -9.35269648    2.77059279   -0.03809981
     atom   66 type  2   force =    -2.30675846   14.81702071   -2.09137047
     The local contribution  to forces
     atom    1 type  1   force =     2.28206663   -2.88921841   -3.07033413
     atom    2 type  1   force =     2.01294342   -1.24591313    1.90638762
     atom    3 type  1   force =    -0.49485172    2.10455218   -4.51428054
     atom    4 type  1   force =    -0.41807936   -1.94438278   -1.88532397
     atom    5 type  1   force =     1.45008261   -0.45358899    0.65951284
     atom    6 type  1   force =    -2.60315743   -0.45801188   -2.49576841
     atom    7 type  1   force =     1.13830940   -2.84450635    0.82517061
     atom    8 type  1   force =     1.08442578    3.66303137   -0.76678761
     atom    9 type  1   force =     2.59915040   -1.72102444   -2.15795287
     atom   10 type  1   force =     2.84859438    2.03092949    2.74532261
     atom   11 type  1   force =     2.20733060   -0.59948090   -2.90751431
     atom   12 type  1   force =    -0.01086844    3.23820935   -1.50057011
     atom   13 type  1   force =    -2.69978372    4.64088723    2.07174452
     atom   14 type  1   force =    -1.68686305    1.33263060   -1.36288883
     atom   15 type  1   force =    -1.35765050   -3.20157203    0.98367890
     atom   16 type  1   force =     0.78654576    0.44030191    1.39720268
     atom   17 type  1   force =    -1.19721405   -1.71505102    4.79818242
     atom   18 type  1   force =     1.89749660   -0.06697647    2.02416495
     atom   19 type  1   force =    -1.82467141    1.93540504   -2.86469756
     atom   20 type  1   force =    -3.57263053   -1.60008695    0.81405962
     atom   21 type  1   force =    -2.27603765    1.69769788    1.66535933
     atom   22 type  1   force =     2.49953959    1.58579041    2.67530604
     atom   23 type  1   force =    -2.01511283    0.06321632   -3.10690585
     atom   24 type  1   force =    -3.01416552   -0.23643133    1.63973192
     atom   25 type  1   force =    -0.01942638    3.96447062   -3.72979672
     atom   26 type  1   force =     2.78470433    1.35422453   -1.40611249
     atom   27 type  1   force =     1.61753720    3.31475421   -2.46262565
     atom   28 type  1   force =    -3.46647991    2.36342841   -1.98275664
     atom   29 type  1   force =    -0.92655807   -0.93772183    1.00164385
     atom   30 type  1   force =    -0.40852155    3.29312217   -0.91991880
     atom   31 type  1   force =     4.74482791   -0.74979793    1.92474992
     atom   32 type  1   force =     0.06208233    0.64534385    4.03937860
     atom   33 type  1   force =     1.60511722   -0.53066149   -2.96879193
     atom   34 type  1   force =     0.34780206   -4.12262725   -0.56063104
     atom   35 type  1   force =    -0.42545861   -0.07668389    3.22770528
     atom   36 type  1   force =    -4.52364323   -2.51825300    1.25392947
     atom   37 type  1   force =    -0.08194159   -0.54341409    3.47517438
     atom   38 type  1   force =    -2.50026144   -2.33024991    0.30917874
     atom   39 type  1   force =     0.18306352   -3.79194858   -2.88201156
     atom   40 type  1   force =     1.61577877   -1.75390294    2.32481871
     atom   41 type  1   force =    -0.63199745    2.06634161    1.01270865
     atom   42 type  1   force =     3.44161581   -0.66818357    1.76942752
     atom   43 type  1   force =    -2.22303789   -0.87575269    2.28167970
     atom   44 type  1   force =    -2.01411564   -4.76233166   -2.70584372
     atom   45 type  2   force =     9.71434874   -1.11051205  -10.11282157
     atom   46 type  2   force =   -12.88650540   -0.55322106  -11.74145396
     atom   47 type  2   force =    -9.96489455    8.88171977   -4.22224584
     atom   48 type  2   force =     9.65922304    7.06726007   12.13403222
     atom   49 type  2   force =    11.09485859    8.41463686   -6.31339372
     atom   50 type  2   force =    -0.77013052   -0.91305798  -11.24943278
     atom   51 type  2   force =    -2.19830950   12.12893840    9.88555182
     atom   52 type  2   force =     6.78166772  -13.43017759    0.39593055
     atom   53 type  2   force =    -6.87691780   -3.99332941   10.84465207
     atom   54 type  2   force =   -12.11750460    9.60242493    2.81759643
     atom   55 type  2   force =     0.82925700   -2.76673358   14.91488904
     atom   56 type  2   force =    -9.94817755  -11.45468563    0.70913925
     atom   57 type  2   force =    -0.77737046    9.30439978  -11.43002334
     atom   58 type  2   force =    -0.48323018   13.88642603   -1.61090288
     atom   59 type  2   force =     7.63896209    8.39125419    2.94753006
     atom   60 type  2   force =    11.78164736   -1.80344196    7.00257858
     atom   61 type  2   force =    -5.06430564   -7.63700447   -8.62184772
     atom   62 type  2   force =   -13.03879484   -3.69277242    3.23371932
     atom   63 type  2   force =     0.54296251   -4.95926192    4.72520295
     atom   64 type  2   force =     8.24527367   -7.28515600   -6.84588417
     atom   65 type  2   force =     9.26760932   -1.77589101    1.46402105
     atom   66 type  2   force =     0.18669807  -15.04058987    1.62257268
     The core correction contribution to forces
     atom    1 type  1   force =     0.00000000    0.00000000    0.00000000
     atom    2 type  1   force =     0.00000000    0.00000000    0.00000000
     atom    3 type  1   force =     0.00000000    0.00000000    0.00000000
     atom    4 type  1   force =     0.00000000    0.00000000    0.00000000
     atom    5 type  1   force =     0.00000000    0.00000000    0.00000000
     atom    6 type  1   force =     0.00000000    0.00000000    0.00000000
     atom    7 type  1   force =     0.00000000    0.00000000    0.00000000
     atom    8 type  1   force =     0.00000000    0.00000000    0.00000000
     atom    9 type  1   force =     0.00000000    0.00000000    0.00000000
     atom   10 type  1   force =     0.00000000    0.00000000    0.00000000
     atom   11 type  1   force =     0.00000000    0.00000000    0.00000000
     atom   12 type  1   force =     0.00000000    0.00000000    0.00000000
     atom   13 type  1   force =     0.00000000    0.00000000    0.00000000
     atom   14 type  1   force =     0.00000000    0.00000000    0.00000000
     atom   15 type  1   force =     0.00000000    0.00000000    0.00000000
     atom   16 type  1   force =     0.00000000    0.00000000    0.00000000
     atom   17 type  1   force =     0.00000000    0.00000000    0.00000000
     atom   18 type  1   force =     0.00000000    0.00000000    0.00000000
     atom   19 type  1   force =     0.00000000    0.00000000    0.00000000
     atom   20 type  1   force =     0.00000000    0.00000000    0.00000000
     atom   21 type  1   force =     0.00000000    0.00000000    0.00000000
     atom   22 type  1   force =     0.00000000    0.00000000    0.00000000
     atom   23 type  1   force =     0.00000000    0.00000000    0.00000000
     atom   24 type  1   force =     0.00000000    0.00000000    0.00000000
     atom   25 type  1   force =     0.00000000    0.00000000    0.00000000
     atom   26 type  1   force =     0.00000000    0.00000000    0.00000000
     atom   27 type  1   force =     0.00000000    0.00000000    0.00000000
     atom   28 type  1   force =     0.00000000    0.00000000    0.00000000
     atom   29 type  1   force =     0.00000000    0.00000000    0.00000000
     atom   30 type  1   force =     0.00000000    0.00000000    0.00000000
     atom   31 type  1   force =     0.00000000    0.00000000    0.00000000
     atom   32 type  1   force =     0.00000000    0.00000000    0.00000000
     atom   33 type  1   force =     0.00000000    0.00000000    0.00000000
     atom   34 type  1   force =     0.00000000    0.00000000    0.00000000
     atom   35 type  1   force =     0.00000000    0.00000000    0.00000000
     atom   36 type  1   force =     0.00000000    0.00000000    0.00000000
     atom   37 type  1   force =     0.00000000    0.00000000    0.00000000
     atom   38 type  1   force =     0.00000000    0.00000000    0.00000000
     atom   39 type  1   force =     0.00000000    0.00000000    0.00000000
     atom   40 type  1   force =     0.00000000    0.00000000    0.00000000
     atom   41 type  1   force =     0.00000000    0.00000000    0.00000000
     atom   42 type  1   force =     0.00000000    0.00000000    0.00000000
     atom   43 type  1   force =     0.00000000    0.00000000    0.00000000
     atom   44 type  1   force =     0.00000000    0.00000000    0.00000000
     atom   45 type  2   force =     0.00582355   -0.01644523    0.00700504
     atom   46 type  2   force =     0.01870188    0.00169890   -0.01022020
     atom   47 type  2   force =     0.01005524   -0.01665096   -0.00270668
     atom   48 type  2   force =    -0.00659421   -0.00725544   -0.02001144
     atom   49 type  2   force =     0.00747663   -0.01297449    0.01393630
     atom   50 type  2   force =     0.01187178    0.01434900   -0.00369021
     atom   51 type  2   force =    -0.01738196    0.00893255   -0.00915429
     atom   52 type  2   force =    -0.01649178    0.00845647    0.01032443
     atom   53 type  2   force =     0.01595651   -0.00123380    0.01688757
     atom   54 type  2   force =    -0.00479002   -0.01472924   -0.01271726
     atom   55 type  2   force =     0.00275288    0.01593893   -0.00475527
     atom   56 type  2   force =    -0.00772844    0.01791817   -0.00478208
     atom   57 type  2   force =     0.01587284    0.01283224   -0.00917546
     atom   58 type  2   force =    -0.00739807    0.00531598   -0.01719892
     atom   59 type  2   force =    -0.01731067   -0.00003012   -0.00587212
     atom   60 type  2   force =     0.00852529    0.00195167    0.02176477
     atom   61 type  2   force =     0.01236184   -0.01054362   -0.00319440
     atom   62 type  2   force =    -0.00624083   -0.00906469    0.01951559
     atom   63 type  2   force =    -0.01518444   -0.00493652    0.01135800
     atom   64 type  2   force =    -0.00562543   -0.01996849    0.00912352
     atom   65 type  2   force =     0.00009152    0.00905788    0.01416044
     atom   66 type  2   force =    -0.01932238   -0.00244698   -0.00343497
     The Hubbard contrib.    to forces
     atom    1 type  1   force =     0.00000000    0.00000000    0.00000000
     atom    2 type  1   force =     0.00000000    0.00000000    0.00000000
     atom    3 type  1   force =     0.00000000    0.00000000    0.00000000
     atom    4 type  1   force =     0.00000000    0.00000000    0.00000000
     atom    5 type  1   force =     0.00000000    0.00000000    0.00000000
     atom    6 type  1   force =     0.00000000    0.00000000    0.00000000
     atom    7 type  1   force =     0.00000000    0.00000000    0.00000000
     atom    8 type  1   force =     0.00000000    0.00000000    0.00000000
     atom    9 type  1   force =     0.00000000    0.00000000    0.00000000
     atom   10 type  1   force =     0.00000000    0.00000000    0.00000000
     atom   11 type  1   force =     0.00000000    0.00000000    0.00000000
     atom   12 type  1   force =     0.00000000    0.00000000    0.00000000
     atom   13 type  1   force =     0.00000000    0.00000000    0.00000000
     atom   14 type  1   force =     0.00000000    0.00000000    0.00000000
     atom   15 type  1   force =     0.00000000    0.00000000    0.00000000
     atom   16 type  1   force =     0.00000000    0.00000000    0.00000000
     atom   17 type  1   force =     0.00000000    0.00000000    0.00000000
     atom   18 type  1   force =     0.00000000    0.00000000    0.00000000
     atom   19 type  1   force =     0.00000000    0.00000000    0.00000000
     atom   20 type  1   force =     0.00000000    0.00000000    0.00000000
     atom   21 type  1   force =     0.00000000    0.00000000    0.00000000
     atom   22 type  1   force =     0.00000000    0.00000000    0.00000000
     atom   23 type  1   force =     0.00000000    0.00000000    0.00000000
     atom   24 type  1   force =     0.00000000    0.00000000    0.00000000
     atom   25 type  1   force =     0.00000000    0.00000000    0.00000000
     atom   26 type  1   force =     0.00000000    0.00000000    0.00000000
     atom   27 type  1   force =     0.00000000    0.00000000    0.00000000
     atom   28 type  1   force =     0.00000000    0.00000000    0.00000000
     atom   29 type  1   force =     0.00000000    0.00000000    0.00000000
     atom   30 type  1   force =     0.00000000    0.00000000    0.00000000
     atom   31 type  1   force =     0.00000000    0.00000000    0.00000000
     atom   32 type  1   force =     0.00000000    0.00000000    0.00000000
     atom   33 type  1   force =     0.00000000    0.00000000    0.00000000
     atom   34 type  1   force =     0.00000000    0.00000000    0.00000000
     atom   35 type  1   force =     0.00000000    0.00000000    0.00000000
     atom   36 type  1   force =     0.00000000    0.00000000    0.00000000
     atom   37 type  1   force =     0.00000000    0.00000000    0.00000000
     atom   38 type  1   force =     0.00000000    0.00000000    0.00000000
     atom   39 type  1   force =     0.00000000    0.00000000    0.00000000
     atom   40 type  1   force =     0.00000000    0.00000000    0.00000000
     atom   41 type  1   force =     0.00000000    0.00000000    0.00000000
     atom   42 type  1   force =     0.00000000    0.00000000    0.00000000
     atom   43 type  1   force =     0.00000000    0.00000000    0.00000000
     atom   44 type  1   force =     0.00000000    0.00000000    0.00000000
     atom   45 type  2   force =     0.00000000    0.00000000    0.00000000
     atom   46 type  2   force =     0.00000000    0.00000000    0.00000000
     atom   47 type  2   force =     0.00000000    0.00000000    0.00000000
     atom   48 type  2   force =     0.00000000    0.00000000    0.00000000
     atom   49 type  2   force =     0.00000000    0.00000000    0.00000000
     atom   50 type  2   force =     0.00000000    0.00000000    0.00000000
     atom   51 type  2   force =     0.00000000    0.00000000    0.00000000
     atom   52 type  2   force =     0.00000000    0.00000000    0.00000000
     atom   53 type  2   force =     0.00000000    0.00000000    0.00000000
     atom   54 type  2   force =     0.00000000    0.00000000    0.00000000
     atom   55 type  2   force =     0.00000000    0.00000000    0.00000000
     atom   56 type  2   force =     0.00000000    0.00000000    0.00000000
     atom   57 type  2   force =     0.00000000    0.00000000    0.00000000
     atom   58 type  2   force =     0.00000000    0.00000000    0.00000000
     atom   59 type  2   force =     0.00000000    0.00000000    0.00000000
     atom   60 type  2   force =     0.00000000    0.00000000    0.00000000
     atom   61 type  2   force =     0.00000000    0.00000000    0.00000000
     atom   62 type  2   force =     0.00000000    0.00000000    0.00000000
     atom   63 type  2   force =     0.00000000    0.00000000    0.00000000
     atom   64 type  2   force =     0.00000000    0.00000000    0.00000000
     atom   65 type  2   force =     0.00000000    0.00000000    0.00000000
     atom   66 type  2   force =     0.00000000    0.00000000    0.00000000
     The SCF correction term to forces
     atom    1 type  1   force =    -0.00000693   -0.00001391   -0.00000579
     atom    2 type  1   force =    -0.00000323   -0.00001067    0.00002041
     atom    3 type  1   force =     0.00001559    0.00002037   -0.00001609
     atom    4 type  1   force =     0.00000905    0.00000265   -0.00000318
     atom    5 type  1   force =     0.00001521   -0.00001493    0.00000262
     atom    6 type  1   force =     0.00001176   -0.00001017   -0.00000507
     atom    7 type  1   force =    -0.00001830   -0.00001955   -0.00001147
     atom    8 type  1   force =    -0.00001142    0.00000780   -0.00001602
     atom    9 type  1   force =     0.00000199   -0.00001446    0.00000136
     atom   10 type  1   force =     0.00000511    0.00000055    0.00002644
     atom   11 type  1   force =     0.00001755    0.00001471   -0.00000973
     atom   12 type  1   force =     0.00001322    0.00004279    0.00000039
     atom   13 type  1   force =    -0.00004577    0.00004406   -0.00000377
     atom   14 type  1   force =    -0.00002346   -0.00000311   -0.00003900
     atom   15 type  1   force =    -0.00002082   -0.00000813    0.00000733
     atom   16 type  1   force =    -0.00001693    0.00001212    0.00001222
     atom   17 type  1   force =    -0.00000238    0.00000699   -0.00002443
     atom   18 type  1   force =    -0.00003289   -0.00001217   -0.00000094
     atom   19 type  1   force =    -0.00000040   -0.00001136   -0.00002865
     atom   20 type  1   force =    -0.00001102   -0.00002383   -0.00000842
     atom   21 type  1   force =    -0.00001943    0.00000108   -0.00001760
     atom   22 type  1   force =     0.00002549    0.00001865   -0.00001837
     atom   23 type  1   force =     0.00000080    0.00002652   -0.00002307
     atom   24 type  1   force =    -0.00000166    0.00002091    0.00001095
     atom   25 type  1   force =     0.00000340    0.00001656   -0.00000682
     atom   26 type  1   force =     0.00000016    0.00000657    0.00000087
     atom   27 type  1   force =    -0.00000392    0.00000586   -0.00001508
     atom   28 type  1   force =    -0.00001037   -0.00000122   -0.00001546
     atom   29 type  1   force =    -0.00003255   -0.00001207    0.00000496
     atom   30 type  1   force =    -0.00003284    0.00001831   -0.00002721
     atom   31 type  1   force =     0.00003885   -0.00000473    0.00002020
     atom   32 type  1   force =    -0.00001582    0.00001050    0.00003598
     atom   33 type  1   force =     0.00001306   -0.00001269   -0.00001015
     atom   34 type  1   force =     0.00001323   -0.00003194    0.00000273
     atom   35 type  1   force =     0.00001679    0.00000224    0.00005386
     atom   36 type  1   force =    -0.00003590   -0.00002642    0.00001968
     atom   37 type  1   force =    -0.00001202    0.00000577    0.00001923
     atom   38 type  1   force =    -0.00004080   -0.00001284    0.00000007
     atom   39 type  1   force =    -0.00003260   -0.00010755   -0.00005729
     atom   40 type  1   force =    -0.00000837   -0.00002609    0.00011335
     atom   41 type  1   force =    -0.00003171    0.00003213    0.00000911
     atom   42 type  1   force =     0.00002201   -0.00000111    0.00002380
     atom   43 type  1   force =    -0.00003389    0.00002504    0.00001569
     atom   44 type  1   force =    -0.00002762   -0.00002572   -0.00004316
     atom   45 type  2   force =    -0.00004976   -0.00012582    0.00012772
     atom   46 type  2   force =     0.00016483    0.00012868   -0.00008559
     atom   47 type  2   force =     0.00013276   -0.00021777   -0.00006027
     atom   48 type  2   force =    -0.00012938   -0.00011819   -0.00022323
     atom   49 type  2   force =     0.00002403   -0.00009098    0.00010753
     atom   50 type  2   force =     0.00026094    0.00022831   -0.00006635
     atom   51 type  2   force =    -0.00029819    0.00011867   -0.00019401
     atom   52 type  2   force =    -0.00018081    0.00003415    0.00009360
     atom   53 type  2   force =    -0.00004479   -0.00000761   -0.00001682
     atom   54 type  2   force =    -0.00003456   -0.00017354   -0.00015554
     atom   55 type  2   force =     0.00004888    0.00021161   -0.00016859
     atom   56 type  2   force =    -0.00004952    0.00018888   -0.00003482
     atom   57 type  2   force =     0.00012548    0.00013077   -0.00005533
     atom   58 type  2   force =    -0.00009163    0.00001479   -0.00021084
     atom   59 type  2   force =    -0.00023313   -0.00002121   -0.00007585
     atom   60 type  2   force =     0.00002295    0.00003306    0.00011809
     atom   61 type  2   force =     0.00016116   -0.00011899    0.00000037
     atom   62 type  2   force =    -0.00007696   -0.00008457    0.00018357
     atom   63 type  2   force =    -0.00021600   -0.00002043    0.00019316
     atom   64 type  2   force =    -0.00006816   -0.00021112    0.00006915
     atom   65 type  2   force =    -0.00004998    0.00010686    0.00010120
     atom   66 type  2   force =    -0.00017430   -0.00000538   -0.00014241

     Total force =     0.541370     Total SCF correction =     0.001131


     Computing stress (Cartesian axis) and pressure


     negative rho (up, down):  4.994E-01 0.000E+00
          total   stress  (Ry/bohr**3)                   (kbar)     P=       -2.91
  -0.00002040  -0.00000024   0.00000001           -3.00       -0.04        0.00
  -0.00000024  -0.00001949   0.00000027           -0.04       -2.87        0.04
   0.00000001   0.00000027  -0.00001940            0.00        0.04       -2.85


     init_run     :      8.18s CPU      8.61s WALL (       1 calls)
     electrons    :     82.69s CPU     88.18s WALL (       1 calls)
     forces       :      6.45s CPU      6.79s WALL (       1 calls)
     stress       :     17.01s CPU     17.58s WALL (       1 calls)

     Called by init_run:
     wfcinit      :      3.15s CPU      3.34s WALL (       1 calls)
     potinit      :      1.30s CPU      1.37s WALL (       1 calls)
     hinit0       :      1.04s CPU      1.07s WALL (       1 calls)

     Called by electrons:
     c_bands      :     55.02s CPU     57.86s WALL (      10 calls)
     sum_band     :     15.94s CPU     17.16s WALL (      10 calls)
     v_of_rho     :      6.80s CPU      7.38s WALL (      11 calls)
     newd         :      3.52s CPU      4.40s WALL (      11 calls)
     PAW_pot      :      1.00s CPU      1.00s WALL (      11 calls)
     mix_rho      :      1.22s CPU      1.31s WALL (      10 calls)

     Called by c_bands:
     init_us_2    :      0.82s CPU      0.85s WALL (      21 calls)
     init_us_2:cp :      0.82s CPU      0.85s WALL (      21 calls)
     regterg      :     54.06s CPU     56.89s WALL (      10 calls)

     Called by *egterg:
     rdiaghg      :      0.20s CPU      0.20s WALL (      31 calls)
     h_psi        :     48.93s CPU     51.35s WALL (      32 calls)
     s_psi        :      1.37s CPU      1.37s WALL (      32 calls)
     g_psi        :      0.16s CPU      0.16s WALL (      21 calls)

     Called by h_psi:
     h_psi:calbec :      1.17s CPU      1.18s WALL (      32 calls)
     vloc_psi     :     45.94s CPU     48.33s WALL (      32 calls)
     add_vuspsi   :      1.35s CPU      1.35s WALL (      32 calls)

     General routines
     calbec       :      1.76s CPU      1.77s WALL (      47 calls)
     fft          :      4.22s CPU      4.78s WALL (     119 calls)
     ffts         :      0.29s CPU      0.32s WALL (      10 calls)
     fftw         :     38.87s CPU     41.53s WALL (    2916 calls)

     Parallel routines

     PWSCF        :   1m54.46s CPU   2m 1.35s WALL


   This run was terminated on:   9:29:35  27Mar2024            

=------------------------------------------------------------------------------=
   JOB DONE.
=------------------------------------------------------------------------------=
