
     Program PWSCF v.7.2 starts on 27Mar2024 at  7:55:23 

     This program is part of the open-source Quantum ESPRESSO suite
     for quantum simulation of materials; please cite
         "P. Giannozzi et al., J. Phys.:Condens. Matter 21 395502 (2009);
         "P. Giannozzi et al., J. Phys.:Condens. Matter 29 465901 (2017);
         "P. Giannozzi et al., J. Chem. Phys. 152 154105 (2020);
          URL http://www.quantum-espresso.org", 
     in publications or presentations arising from this work. More details at
     http://www.quantum-espresso.org/quote

     Parallel version (MPI), running on    32 processors

     MPI processes distributed on     1 nodes
     170195 MiB available memory on the printing compute node when the environment starts

     Reading input from pw-wt-161.in
Warning: card &CELL ignored
Warning: card / ignored

     Current dimensions of program PWSCF are:
     Max number of different atomic species (ntypx) = 10
     Max number of k-points (npk) =  40000
     Max angular momentum in pseudopotentials (lmaxx) =  4
     file O.pbe-n-kjpaw_psl.0.1.UPF: wavefunction(s)  2P renormalized

     IMPORTANT: XC functional enforced from input :
     Exchange-correlation= PBE
                           (   1   4   3   4   0   0   0)
     Any further DFT definition will be discarded
     Please, verify this is what you really want


     gamma-point specific algorithms are used

     R & G space division:  proc/nbgrp/npool/nimage =      32
     Subspace diagonalization in iterative solution of the eigenvalue problem:
     a serial algorithm will be used


     Parallelization info
     --------------------
     sticks:   dense  smooth     PW     G-vecs:    dense   smooth      PW
     Min        1707    1707    426               301015   301015   37634
     Max        1710    1710    428               301034   301034   37648
     Sum       54693   54693  13673              9632757  9632757 1204469

     Using Slab Decomposition



     bravais-lattice index     =            0
     lattice parameter (alat)  =      75.7119  a.u.
     unit-cell volume          =  434002.3113 (a.u.)^3
     number of atoms/cell      =           66
     number of atomic types    =            2
     number of electrons       =       176.00
     number of Kohn-Sham states=           88
     kinetic-energy cutoff     =      30.0000  Ry
     charge density cutoff     =     120.0000  Ry
     scf convergence threshold =      1.0E-06
     mixing beta               =       0.5000
     number of iterations used =            8  plain     mixing
     Exchange-correlation= PBE
                           (   1   4   3   4   0   0   0)

     celldm(1)=  75.711877  celldm(2)=   0.000000  celldm(3)=   0.000000
     celldm(4)=   0.000000  celldm(5)=   0.000000  celldm(6)=   0.000000

     crystal axes: (cart. coord. in units of alat)
               a(1) = (   1.000000   0.000000   0.000000 )  
               a(2) = (   0.000000   1.000000   0.000000 )  
               a(3) = (   0.000000   0.000000   1.000000 )  

     reciprocal axes: (cart. coord. in units 2 pi/alat)
               b(1) = (  1.000000  0.000000  0.000000 )  
               b(2) = (  0.000000  1.000000  0.000000 )  
               b(3) = (  0.000000  0.000000  1.000000 )  


     PseudoPot. # 1 for H  read from file:
     /share/pfaendtnergroup/rverma7/QE_PP/H.pbe-rrkjus_psl.1.0.0.UPF
     MD5 check sum: f52b6d4d1c606e5624b1dc7b2218f220
     Pseudo is Ultrasoft, Zval =  1.0
     Generated using "atomic" code by A. Dal Corso  v.5.1
     Using radial grid of  929 points,  2 beta functions with: 
                l(1) =   0
                l(2) =   0
     Q(r) pseudized with 0 coefficients 


     PseudoPot. # 2 for O  read from file:
     /share/pfaendtnergroup/rverma7/QE_PP/O.pbe-n-kjpaw_psl.0.1.UPF
     MD5 check sum: 0234752ac141de4415c5fc33072bef88
     Pseudo is Projector augmented-wave + core cor, Zval =  6.0
     Generated using "atomic" code by A. Dal Corso  v.5.0.99 svn rev. 10869
     Shape of augmentation charge: BESSEL
     Using radial grid of 1095 points,  4 beta functions with: 
                l(1) =   0
                l(2) =   0
                l(3) =   1
                l(4) =   1
     Q(r) pseudized with 0 coefficients 


     atomic species   valence    mass     pseudopotential
        H              1.00     1.00800     H ( 1.00)
        O              6.00    15.99900     O ( 1.00)

     No symmetry found



   Cartesian axes

     site n.     atom                  positions (alat units)
         1           H   tau(   1) = (   0.2641707   0.1548234   0.4097841  )
         2           H   tau(   2) = (   0.3006365   0.1421690   0.3978784  )
         3           H   tau(   3) = (   0.3031823   0.3221515   0.4201922  )
         4           H   tau(   4) = (   0.3283414   0.2978410   0.3997504  )
         5           H   tau(   5) = (   0.2941470   0.4148758   0.3595158  )
         6           H   tau(   6) = (   0.2921003   0.3740921   0.3655560  )
         7           H   tau(   7) = (   0.3173343   0.1983776   0.3454137  )
         8           H   tau(   8) = (   0.3019094   0.1844253   0.3116935  )
         9           H   tau(   9) = (   0.1654062   0.2558592   0.4128042  )
        10           H   tau(  10) = (   0.1601897   0.2839386   0.3870461  )
        11           H   tau(  11) = (   0.2652440   0.2267815   0.4658180  )
        12           H   tau(  12) = (   0.2907276   0.2501685   0.4427805  )
        13           H   tau(  13) = (   0.3002621   0.2576563   0.3643829  )
        14           H   tau(  14) = (   0.2655435   0.2750281   0.3506801  )
        15           H   tau(  15) = (   0.2196431   0.2836640   0.3825034  )
        16           H   tau(  16) = (   0.2159241   0.2466742   0.3739673  )
        17           H   tau(  17) = (   0.4372395   0.2002746   0.2790465  )
        18           H   tau(  18) = (   0.4636715   0.2060901   0.3116186  )
        19           H   tau(  19) = (   0.4037938   0.2084862   0.4109322  )
        20           H   tau(  20) = (   0.3969050   0.2318732   0.3801323  )
        21           H   tau(  21) = (   0.3318607   0.2854362   0.3337576  )
        22           H   tau(  22) = (   0.3643829   0.3119930   0.3379259  )
        23           H   tau(  23) = (   0.2034694   0.2009485   0.4162486  )
        24           H   tau(  24) = (   0.2297017   0.2313241   0.4241108  )
        25           H   tau(  25) = (   0.3784101   0.3684513   0.3426931  )
        26           H   tau(  26) = (   0.3434419   0.3679770   0.3579683  )
        27           H   tau(  27) = (   0.3084737   0.2007488   0.3925870  )
        28           H   tau(  28) = (   0.3415699   0.2250343   0.3900911  )
        29           H   tau(  29) = (   0.3244727   0.2000749   0.4708599  )
        30           H   tau(  30) = (   0.3004368   0.1735180   0.4510920  )
        31           H   tau(  31) = (   0.2377137   0.2816174   0.4410333  )
        32           H   tau(  32) = (   0.2164233   0.3157619   0.4450518  )
        33           H   tau(  33) = (   0.2741545   0.3258705   0.3619119  )
        34           H   tau(  34) = (   0.2560339   0.3302384   0.3977037  )
        35           H   tau(  35) = (   0.2717584   0.1776114   0.4884063  )
        36           H   tau(  36) = (   0.2458755   0.1515537   0.5095719  )
        37           H   tau(  37) = (   0.3331586   0.2653189   0.4500686  )
        38           H   tau(  38) = (   0.3557469   0.2354424   0.4354923  )
        39           H   tau(  39) = (   0.1976538   0.1407712   0.4358917  )
        40           H   tau(  40) = (   0.2319730   0.1602895   0.4494946  )
        41           H   tau(  41) = (   0.3095969   0.1390241   0.3459878  )
        42           H   tau(  42) = (   0.3086484   0.0995882   0.3424685  )
        43           H   tau(  43) = (   0.3844253   0.2621740   0.3382004  )
        44           H   tau(  44) = (   0.4185698   0.2444028   0.3215275  )
        45           O   tau(  45) = (   0.2877824   0.1620866   0.4097342  )
        46           O   tau(  46) = (   0.3191564   0.3027830   0.4219393  )
        47           O   tau(  47) = (   0.3062274   0.3930613   0.3536254  )
        48           O   tau(  48) = (   0.3091476   0.1770124   0.3341071  )
        49           O   tau(  49) = (   0.1550231   0.2765506   0.4102334  )
        50           O   tau(  50) = (   0.2666916   0.2433795   0.4481967  )
        51           O   tau(  51) = (   0.2912517   0.2784475   0.3532510  )
        52           O   tau(  52) = (   0.2200424   0.2673905   0.3631848  )
        53           O   tau(  53) = (   0.4497442   0.2174466   0.2943467  )
        54           O   tau(  54) = (   0.3846499   0.2201173   0.4000000  )
        55           O   tau(  55) = (   0.3565207   0.2874828   0.3327093  )
        56           O   tau(  56) = (   0.2077873   0.2260077   0.4120305  )
        57           O   tau(  57) = (   0.3619618   0.3525521   0.3515038  )
        58           O   tau(  58) = (   0.3193560   0.2211406   0.3793835  )
        59           O   tau(  59) = (   0.3049544   0.1835268   0.4744291  )
        60           O   tau(  60) = (   0.2331961   0.3044053   0.4297017  )
        61           O   tau(  61) = (   0.2689629   0.3424186   0.3808062  )
        62           O   tau(  62) = (   0.2465993   0.1692999   0.4920005  )
        63           O   tau(  63) = (   0.3392737   0.2420317   0.4546612  )
        64           O   tau(  64) = (   0.2177711   0.1545988   0.4280295  )
        65           O   tau(  65) = (   0.3104206   0.1178585   0.3599401  )
        66           O   tau(  66) = (   0.4041682   0.2449520   0.3411456  )

     number of k points=     1
                       cart. coord. in units 2pi/alat
        k(    1) = (   0.0000000   0.0000000   0.0000000), wk =   2.0000000

     Dense  grid:  4816379 G-vectors     FFT dimensions: ( 270, 270, 270)

     Estimated max dynamical RAM per process >     612.29 MB

     Estimated total dynamical RAM >      19.13 GB

     Check: negative core charge=   -0.000006

     Initial potential from superposition of free atoms

     starting charge     175.9995, renormalised to     176.0000

     negative rho (up, down):  3.754E-01 0.000E+00
     Starting wfcs are  132 randomized atomic wfcs
     Checking if some PAW data can be deallocated... 

     total cpu time spent up to now is        8.7 secs

     Self-consistent Calculation

     iteration #  1     ecut=    30.00 Ry     beta= 0.50
     Davidson diagonalization with overlap
     ethr =  1.00E-02,  avg # of iterations =  2.0

     negative rho (up, down):  4.463E-01 0.000E+00

     total cpu time spent up to now is       17.9 secs

     total energy              =    -965.71768511 Ry
     estimated scf accuracy    <       7.03558943 Ry

     iteration #  2     ecut=    30.00 Ry     beta= 0.50
     Davidson diagonalization with overlap
     ethr =  4.00E-03,  avg # of iterations =  2.0

     negative rho (up, down):  4.671E-01 0.000E+00

     total cpu time spent up to now is       27.4 secs

     total energy              =    -967.69852088 Ry
     estimated scf accuracy    <       1.04448145 Ry

     iteration #  3     ecut=    30.00 Ry     beta= 0.50
     Davidson diagonalization with overlap
     ethr =  5.93E-04,  avg # of iterations =  2.0

     negative rho (up, down):  5.139E-01 0.000E+00

     total cpu time spent up to now is       35.8 secs

     total energy              =    -967.75450944 Ry
     estimated scf accuracy    <       0.13452052 Ry

     iteration #  4     ecut=    30.00 Ry     beta= 0.50
     Davidson diagonalization with overlap
     ethr =  7.64E-05,  avg # of iterations =  3.0

     negative rho (up, down):  5.141E-01 0.000E+00

     total cpu time spent up to now is       45.4 secs

     total energy              =    -967.77951285 Ry
     estimated scf accuracy    <       0.04163765 Ry

     iteration #  5     ecut=    30.00 Ry     beta= 0.50
     Davidson diagonalization with overlap
     ethr =  2.37E-05,  avg # of iterations =  2.0

     negative rho (up, down):  5.131E-01 0.000E+00

     total cpu time spent up to now is       53.1 secs

     total energy              =    -967.77997129 Ry
     estimated scf accuracy    <       0.00839151 Ry

     iteration #  6     ecut=    30.00 Ry     beta= 0.50
     Davidson diagonalization with overlap
     ethr =  4.77E-06,  avg # of iterations =  2.0

     negative rho (up, down):  5.124E-01 0.000E+00

     total cpu time spent up to now is       61.0 secs

     total energy              =    -967.77999863 Ry
     estimated scf accuracy    <       0.00214732 Ry

     iteration #  7     ecut=    30.00 Ry     beta= 0.50
     Davidson diagonalization with overlap
     ethr =  1.22E-06,  avg # of iterations =  2.0

     negative rho (up, down):  5.118E-01 0.000E+00

     total cpu time spent up to now is       69.7 secs

     total energy              =    -967.78009928 Ry
     estimated scf accuracy    <       0.00040214 Ry

     iteration #  8     ecut=    30.00 Ry     beta= 0.50
     Davidson diagonalization with overlap
     ethr =  2.28E-07,  avg # of iterations =  2.0

     negative rho (up, down):  5.118E-01 0.000E+00

     total cpu time spent up to now is       79.1 secs

     total energy              =    -967.78020114 Ry
     estimated scf accuracy    <       0.00002282 Ry

     iteration #  9     ecut=    30.00 Ry     beta= 0.50
     Davidson diagonalization with overlap
     ethr =  1.30E-08,  avg # of iterations =  3.0

     negative rho (up, down):  5.118E-01 0.000E+00

     total cpu time spent up to now is       88.4 secs

     total energy              =    -967.78019988 Ry
     estimated scf accuracy    <       0.00001665 Ry

     iteration # 10     ecut=    30.00 Ry     beta= 0.50
     Davidson diagonalization with overlap
     ethr =  9.46E-09,  avg # of iterations =  2.0

     negative rho (up, down):  5.119E-01 0.000E+00

     total cpu time spent up to now is       96.8 secs

     total energy              =    -967.78020111 Ry
     estimated scf accuracy    <       0.00000129 Ry

     iteration # 11     ecut=    30.00 Ry     beta= 0.50
     Davidson diagonalization with overlap
     ethr =  7.31E-10,  avg # of iterations =  3.0

     negative rho (up, down):  5.119E-01 0.000E+00

     total cpu time spent up to now is      107.1 secs

     End of self-consistent calculation

          k = 0.0000 0.0000 0.0000 (602235 PWs)   bands (ev):

   -25.7516 -25.6326 -25.4959 -25.4291 -25.3545 -25.3060 -25.2997 -25.2432
   -25.1661 -25.1272 -25.1100 -25.0087 -24.9942 -24.9775 -24.6372 -24.5513
   -24.4894 -24.4650 -24.4196 -24.4012 -24.3018 -23.7990 -13.8775 -13.6561
   -13.6432 -13.5040 -13.4199 -13.3830 -13.2116 -13.1209 -13.0681 -13.0289
   -12.8933 -12.8200 -12.7977 -12.6288 -12.5306 -12.4795 -12.4124 -12.3876
   -12.3766 -12.2346 -12.1646 -12.0428 -10.9532 -10.7574 -10.5271 -10.4283
   -10.2328 -10.0791  -9.9902  -9.8841  -9.6724  -9.6202  -9.5637  -9.5214
    -9.4571  -9.1200  -8.9902  -8.8947  -8.7043  -8.5468  -8.5091  -8.3671
    -8.2683  -7.9079  -7.8630  -7.8251  -7.7368  -7.6156  -7.5804  -7.5400
    -7.5308  -7.4979  -7.4688  -7.3220  -7.2989  -7.2620  -7.2135  -7.1595
    -7.1035  -6.9672  -6.9214  -6.8157  -6.7964  -6.7621  -6.3620  -6.3600

     highest occupied level (ev):    -6.3600

!    total energy              =    -967.78020144 Ry
     estimated scf accuracy    <       0.00000003 Ry

     The total energy is the sum of the following terms:
     one-electron contribution =   -5708.82894429 Ry
     hartree contribution      =    2889.05257232 Ry
     xc contribution           =    -193.65017530 Ry
     ewald contribution        =    2254.94615500 Ry
     one-center paw contrib.   =    -209.29980917 Ry

     convergence has been achieved in  11 iterations

     negative rho (up, down):  5.119E-01 0.000E+00

     Forces acting on atoms (cartesian axes, Ry/au):

     atom    1 type  1   force =    -0.00205537    0.00135208   -0.00714356
     atom    2 type  1   force =    -0.05160281    0.05786082    0.02944579
     atom    3 type  1   force =     0.03344121   -0.03924504   -0.01684829
     atom    4 type  1   force =    -0.01502035    0.01810784   -0.00235684
     atom    5 type  1   force =     0.03654732   -0.06877343   -0.01253386
     atom    6 type  1   force =     0.02593606    0.06803635   -0.02726337
     atom    7 type  1   force =    -0.00551079   -0.02773580    0.00169911
     atom    8 type  1   force =     0.00476460   -0.01106060    0.01657463
     atom    9 type  1   force =     0.05628360   -0.08871135    0.00579718
     atom   10 type  1   force =    -0.00371134   -0.01772597    0.03040052
     atom   11 type  1   force =     0.02733069   -0.00600824    0.01206710
     atom   12 type  1   force =    -0.05201155   -0.03728425    0.02369125
     atom   13 type  1   force =    -0.02251676    0.01182982   -0.00410221
     atom   14 type  1   force =     0.05907941   -0.01168475    0.01386384
     atom   15 type  1   force =    -0.00156757   -0.02881981   -0.02820333
     atom   16 type  1   force =    -0.01416277   -0.07034129    0.04148197
     atom   17 type  1   force =     0.06067794    0.05434731    0.07693861
     atom   18 type  1   force =    -0.02924708   -0.00476352   -0.03509116
     atom   19 type  1   force =    -0.03384145    0.01017916   -0.00642436
     atom   20 type  1   force =    -0.02604471   -0.01827450    0.00810513
     atom   21 type  1   force =    -0.00037951    0.01493779    0.00345392
     atom   22 type  1   force =    -0.05369221   -0.06167050   -0.01030507
     atom   23 type  1   force =     0.02566577    0.05542881   -0.00660816
     atom   24 type  1   force =    -0.03553630   -0.01861020   -0.02104163
     atom   25 type  1   force =     0.00080995   -0.00909419    0.00003023
     atom   26 type  1   force =    -0.00409366   -0.00379215   -0.00869223
     atom   27 type  1   force =     0.02573539    0.06844257   -0.03907017
     atom   28 type  1   force =    -0.00771130   -0.01923156   -0.01381413
     atom   29 type  1   force =    -0.06259292   -0.02420736    0.01169731
     atom   30 type  1   force =     0.01271328    0.01589809    0.03155736
     atom   31 type  1   force =     0.00403157    0.05610163   -0.02596918
     atom   32 type  1   force =     0.03587795   -0.03110308   -0.04152602
     atom   33 type  1   force =    -0.01189391    0.02577154    0.06221622
     atom   34 type  1   force =    -0.01045486   -0.01336108    0.00887868
     atom   35 type  1   force =    -0.04897076   -0.03052166    0.02562977
     atom   36 type  1   force =     0.01165457    0.03179562   -0.03080351
     atom   37 type  1   force =     0.00921929    0.02243250   -0.00628240
     atom   38 type  1   force =    -0.03848887    0.02984825    0.05506597
     atom   39 type  1   force =     0.06819399    0.04017781   -0.01479849
     atom   40 type  1   force =    -0.05691762   -0.02448992   -0.02548932
     atom   41 type  1   force =     0.00401071   -0.00549796    0.01343971
     atom   42 type  1   force =     0.00339556    0.03758509    0.05204516
     atom   43 type  1   force =     0.03625170   -0.02851482   -0.01191671
     atom   44 type  1   force =     0.00607174   -0.00603855   -0.00931176
     atom   45 type  2   force =     0.05937034   -0.05810931   -0.02522133
     atom   46 type  2   force =    -0.01108324    0.01152276    0.02678379
     atom   47 type  2   force =    -0.06828344    0.00069268    0.04900044
     atom   48 type  2   force =    -0.00164099    0.03920618   -0.04551167
     atom   49 type  2   force =    -0.05195492    0.10924415   -0.03411051
     atom   50 type  2   force =     0.00260505    0.04629819   -0.03955416
     atom   51 type  2   force =    -0.05512194   -0.01058159   -0.01333140
     atom   52 type  2   force =     0.02943199    0.11874715   -0.02726361
     atom   53 type  2   force =    -0.02941575   -0.04730219   -0.04335443
     atom   54 type  2   force =     0.05797699    0.01188210   -0.00240441
     atom   55 type  2   force =     0.03841071    0.05622002    0.00814307
     atom   56 type  2   force =     0.01586753   -0.05982361    0.03825460
     atom   57 type  2   force =     0.01404914    0.02107806    0.00466001
     atom   58 type  2   force =    -0.02975457   -0.05489344    0.05602395
     atom   59 type  2   force =     0.06096493    0.01005845   -0.05829237
     atom   60 type  2   force =    -0.02971234   -0.02088329    0.06009536
     atom   61 type  2   force =     0.02378682   -0.01924361   -0.06454603
     atom   62 type  2   force =     0.02175054   -0.00457930   -0.00029170
     atom   63 type  2   force =     0.05051988   -0.04148257   -0.05173857
     atom   64 type  2   force =    -0.01181897   -0.00933146    0.05915394
     atom   65 type  2   force =    -0.00408763   -0.03790718   -0.04874275
     atom   66 type  2   force =    -0.04152791    0.02561633    0.03376405
     The non-local contrib.  to forces
     atom    1 type  1   force =     0.10247269    0.02974014   -0.00082093
     atom    2 type  1   force =    -0.04090745    0.06022653    0.03666726
     atom    3 type  1   force =     0.06343580   -0.07631244    0.00376192
     atom    4 type  1   force =    -0.04280702    0.02450338    0.09760767
     atom    5 type  1   force =     0.04148517   -0.07908987   -0.01891296
     atom    6 type  1   force =     0.04079560    0.05804193   -0.03458319
     atom    7 type  1   force =    -0.02955390   -0.07439503   -0.04087641
     atom    8 type  1   force =     0.03143186   -0.03002824    0.09568675
     atom    9 type  1   force =    -0.05758843    0.11613416   -0.01833212
     atom   10 type  1   force =    -0.01936956   -0.03338936    0.09495136
     atom   11 type  1   force =     0.01044071    0.07815114   -0.08239020
     atom   12 type  1   force =    -0.08640386   -0.02699061    0.02256743
     atom   13 type  1   force =    -0.03627130    0.07823210   -0.04195028
     atom   14 type  1   force =     0.08460726    0.00947002    0.00922682
     atom   15 type  1   force =     0.00156107   -0.06445948   -0.07307888
     atom   16 type  1   force =     0.02183182    0.10788826   -0.05374058
     atom   17 type  1   force =     0.04232259    0.05185018    0.05194651
     atom   18 type  1   force =    -0.05858126    0.04182256   -0.07227523
     atom   19 type  1   force =    -0.07735093    0.04794410   -0.04498661
     atom   20 type  1   force =    -0.03741469   -0.03703923    0.06341141
     atom   21 type  1   force =     0.10336869    0.01133323   -0.00312303
     atom   22 type  1   force =    -0.02714054   -0.07599550   -0.01573389
     atom   23 type  1   force =     0.01714515    0.08749990   -0.01333942
     atom   24 type  1   force =    -0.07868282   -0.02149486   -0.04220604
     atom   25 type  1   force =    -0.07380172   -0.06873050    0.03917438
     atom   26 type  1   force =     0.07605199   -0.06171784   -0.02665359
     atom   27 type  1   force =     0.03465612    0.06059102   -0.03766029
     atom   28 type  1   force =    -0.09097704   -0.01690591   -0.04138961
     atom   29 type  1   force =    -0.06746862   -0.05760100    0.01031009
     atom   30 type  1   force =     0.01684790    0.03580401    0.07915148
     atom   31 type  1   force =    -0.01759189    0.07930876   -0.03733425
     atom   32 type  1   force =     0.06319748   -0.04429907   -0.05599740
     atom   33 type  1   force =    -0.02057331    0.05805220    0.06936460
     atom   34 type  1   force =     0.05773404    0.05171889   -0.07630874
     atom   35 type  1   force =    -0.06306865   -0.02335563    0.00919248
     atom   36 type  1   force =     0.00582870    0.07094824   -0.07058518
     atom   37 type  1   force =     0.02764459   -0.10408966    0.01818521
     atom   38 type  1   force =    -0.05466201    0.02371637    0.06058182
     atom   39 type  1   force =     0.07273973    0.04934921   -0.02502702
     atom   40 type  1   force =    -0.04526370   -0.01883313   -0.06484377
     atom   41 type  1   force =     0.00263282   -0.07827892    0.04874278
     atom   42 type  1   force =     0.00628555    0.06954703    0.06406975
     atom   43 type  1   force =     0.05694248   -0.04780163    0.00622014
     atom   44 type  1   force =    -0.06687704    0.00499663    0.08835093
     atom   45 type  2   force =    -0.73849475   -1.61170575   -0.56765313
     atom   46 type  2   force =    -0.45478115    0.93696931   -1.73753975
     atom   47 type  2   force =    -1.62210646    0.37716508    1.29810718
     atom   48 type  2   force =    -0.01521236    1.65309600   -1.02016244
     atom   49 type  2   force =     1.23106724   -1.09477511   -1.60127688
     atom   50 type  2   force =     1.35649146   -0.74390687    0.91935208
     atom   51 type  2   force =    -0.96520788   -1.47358654    0.48134204
     atom   52 type  2   force =    -0.13035384   -0.30288797    2.06298383
     atom   53 type  2   force =     0.12345037   -2.25538644    0.29039167
     atom   54 type  2   force =     1.89406000   -0.04852577   -0.14775666
     atom   55 type  2   force =    -1.03698599    1.19411907    0.51259148
     atom   56 type  2   force =     1.14385180   -1.29698407    1.01267426
     atom   57 type  2   force =     0.02142717    2.06748634   -0.29607890
     atom   58 type  2   force =     0.78037860   -0.90898900    1.38909178
     atom   59 type  2   force =     0.70004359    0.49310279   -1.57267879
     atom   60 type  2   force =    -0.88040976   -0.60361409    1.74844053
     atom   61 type  2   force =    -0.42505395   -1.86171294   -0.10777395
     atom   62 type  2   force =     1.30270369   -0.98041467    0.94809953
     atom   63 type  2   force =     0.50346498    1.12393482   -1.61375339
     atom   64 type  2   force =    -0.54522034   -0.59478903    1.89744123
     atom   65 type  2   force =    -0.24554040   -0.02569025   -2.00426544
     atom   66 type  2   force =    -0.01395713    0.88989377   -1.32269899
     The ionic contribution  to forces
     atom    1 type  1   force =    -3.47744822   -2.89880446   -0.36838979
     atom    2 type  1   force =     1.59518127   -4.06498502   -0.60770812
     atom    3 type  1   force =    -1.27129639    4.23992109    1.43238299
     atom    4 type  1   force =     2.50332704    0.72917519   -2.16095136
     atom    5 type  1   force =    -1.64158898    4.73227418    0.37589197
     atom    6 type  1   force =    -1.44166610    0.68685466    0.57956939
     atom    7 type  1   force =     1.25545647    1.07144832   -1.19514554
     atom    8 type  1   force =    -1.28918887    0.06223190   -5.34560585
     atom    9 type  1   force =    -1.13248374   -3.06121479    0.84063089
     atom   10 type  1   force =    -1.73110280    1.85106821   -3.54828022
     atom   11 type  1   force =    -1.04076829   -1.83997516    4.54839208
     atom   12 type  1   force =     2.28383125    1.32747989    0.88065806
     atom   13 type  1   force =     0.59761693   -1.88530075   -0.13660961
     atom   14 type  1   force =    -3.29896771    0.07919812   -2.44525929
     atom   15 type  1   force =    -1.80103245    2.96059153    1.07488878
     atom   16 type  1   force =    -2.17602816   -3.20629543   -0.51126466
     atom   17 type  1   force =    -0.49355612   -2.56654611   -3.02855580
     atom   18 type  1   force =     3.44918114   -2.02770174    1.75206833
     atom   19 type  1   force =     4.66977047   -2.46195075    2.30149867
     atom   20 type  1   force =     3.37048486    0.71464828   -1.23024122
     atom   21 type  1   force =    -2.27645318    0.43248515   -2.15911225
     atom   22 type  1   force =     2.25415337    3.10947366   -0.89132253
     atom   23 type  1   force =    -2.79626195   -3.42448241    0.33288444
     atom   24 type  1   force =     0.58642216    0.13135864    1.74024138
     atom   25 type  1   force =     3.78897338    3.71988944   -1.84661474
     atom   26 type  1   force =    -0.91573553    3.42118987    0.57946283
     atom   27 type  1   force =    -0.66919336   -2.66020634    0.97259803
     atom   28 type  1   force =     3.41624449   -0.00508588    0.97418791
     atom   29 type  1   force =     3.41318479    0.56843732    1.97156744
     atom   30 type  1   force =     0.47086985   -2.75071492   -0.82369225
     atom   31 type  1   force =    -0.85365813   -1.02847627    2.92409919
     atom   32 type  1   force =    -3.41968637    3.10454332    3.32604233
     atom   33 type  1   force =    -0.31278236    0.07933062   -3.39710564
     atom   34 type  1   force =    -2.58485136    0.82817196    2.19620458
     atom   35 type  1   force =     1.23846108   -0.37489612    2.40752172
     atom   36 type  1   force =    -0.82388387   -3.57434329    4.23891293
     atom   37 type  1   force =     0.69349941    3.78898478    1.72536663
     atom   38 type  1   force =     3.50966834   -0.63181485   -0.12859574
     atom   39 type  1   force =    -4.15450518   -3.32976697    1.15672039
     atom   40 type  1   force =    -0.12883502   -1.16770531    2.65577270
     atom   41 type  1   force =     0.15387491   -0.21370711   -2.72133823
     atom   42 type  1   force =    -0.08779930   -4.37457907   -3.00882761
     atom   43 type  1   force =     0.21406699    1.46181683   -1.33381568
     atom   44 type  1   force =     3.33127434    0.22280667   -3.48328886
     atom   45 type  2   force =     0.96093886   -9.23560672    1.33457801
     atom   46 type  2   force =     6.39866355    8.68525172   10.72472608
     atom   47 type  2   force =     1.81456162   12.91391821   -5.54238248
     atom   48 type  2   force =    -0.01099395   -9.32284099  -11.49028847
     atom   49 type  2   force =   -16.25897474    5.82708079    3.69132697
     atom   50 type  2   force =    -5.54490328    3.44083273    8.97261459
     atom   51 type  2   force =    -1.54699483    5.53172101  -11.42427282
     atom   52 type  2   force =    -9.79790304    2.98501663  -14.26659477
     atom   53 type  2   force =     8.21319643    0.63279184   -7.15023496
     atom   54 type  2   force =    10.56371581   -4.52474196    4.44565401
     atom   55 type  2   force =     7.33274444    2.92345335  -11.08389067
     atom   56 type  2   force =   -13.85139825   -2.66475787   -0.58150319
     atom   57 type  2   force =     8.57725499    6.67279468   -2.38263926
     atom   58 type  2   force =     1.45448480   -2.04992215   -5.37501906
     atom   59 type  2   force =     5.44364871   -7.90317280   14.84982811
     atom   60 type  2   force =    -6.65662413   10.92615912    5.49648689
     atom   61 type  2   force =    -4.88127079   15.21788347   -1.47449785
     atom   62 type  2   force =    -8.14787729   -5.20941167   11.71830546
     atom   63 type  2   force =     9.01555555   -0.00378300   14.87321142
     atom   64 type  2   force =    -9.77802101  -10.22329526   -2.21992089
     atom   65 type  2   force =     2.41270665  -14.71281483   -1.01724067
     atom   66 type  2   force =    11.31072082   -1.68138320   -2.71408511
     The local contribution  to forces
     atom    1 type  1   force =     3.37288825    2.87037757    0.36203120
     atom    2 type  1   force =    -1.60593209    4.06258368    0.60045611
     atom    3 type  1   force =     1.24125910   -4.20290459   -1.45302798
     atom    4 type  1   force =    -2.47559024   -0.73561393    2.06095915
     atom    5 type  1   force =     1.63660379   -4.72200331   -0.36954915
     atom    6 type  1   force =     1.42675735   -0.67690124   -0.57228465
     atom    7 type  1   force =    -1.23146136   -1.02483719    1.23768434
     atom    8 type  1   force =     1.26247599   -0.04331054    5.26646355
     atom    9 type  1   force =     1.24631221    2.85632162   -0.81653762
     atom   10 type  1   force =     1.74671471   -1.83544875    3.48369166
     atom   11 type  1   force =     1.05761079    1.75577835   -4.45397862
     atom   12 type  1   force =    -2.24948923   -1.33781781   -0.87956835
     atom   13 type  1   force =    -0.58390915    1.81885970    0.17441916
     atom   14 type  1   force =     3.27339702   -0.10039677    2.44986069
     atom   15 type  1   force =     1.79785636   -2.92499698   -1.03004863
     atom   16 type  1   force =     2.13998536    3.02802274    0.60645205
     atom   17 type  1   force =     0.51186940    2.56901208    3.05351889
     atom   18 type  1   force =    -3.41990151    1.98108275   -1.71492895
     atom   19 type  1   force =    -4.62631679    2.42414612   -2.26297495
     atom   20 type  1   force =    -3.35916536   -0.69592827    1.17490117
     atom   21 type  1   force =     2.17266570   -0.42892297    2.16565434
     atom   22 type  1   force =    -2.28075629   -3.09519681    0.89671542
     atom   23 type  1   force =     2.80473669    3.39237658   -0.32619073
     atom   24 type  1   force =    -0.54332840   -0.12851914   -1.71911610
     atom   25 type  1   force =    -3.71441370   -3.66030166    1.80743621
     atom   26 type  1   force =     0.83554576   -3.36331117   -0.56153958
     atom   27 type  1   force =     0.66022440    2.66801116   -0.97404216
     atom   28 type  1   force =    -3.33302437    0.00271634   -0.94664792
     atom   29 type  1   force =    -3.40835245   -0.53508033   -1.97022094
     atom   30 type  1   force =    -0.47505522    2.73076333    0.77604888
     atom   31 type  1   force =     0.87523523    1.00522533   -2.91277168
     atom   32 type  1   force =     3.39232098   -3.09139100   -3.31161071
     atom   33 type  1   force =     0.32141400   -0.11165340    3.38992553
     atom   34 type  1   force =     2.51661656   -0.89329373   -2.11105535
     atom   35 type  1   force =    -1.22442314    0.36768241   -2.39111796
     atom   36 type  1   force =     0.82966120    3.53515360   -4.19917439
     atom   37 type  1   force =    -0.71197134   -3.66250713   -1.74987066
     atom   38 type  1   force =    -3.49354367    0.63790566    0.12304352
     atom   39 type  1   force =     4.14990786    3.32054799   -1.14652560
     atom   40 type  1   force =     0.11713960    1.16200587   -2.61644533
     atom   41 type  1   force =    -0.15254499    0.28644904    2.68599870
     atom   42 type  1   force =     0.08486165    4.34257273    2.99676917
     atom   43 type  1   force =    -0.23480350   -1.44257382    1.31564144
     atom   44 type  1   force =    -3.25837126   -0.23388550    3.38559022
     atom   45 type  2   force =    -0.17013988   10.77251770   -0.79776541
     atom   46 type  2   force =    -5.95934862   -9.60016064   -8.97742419
     atom   47 type  2   force =    -0.27686560  -13.28581033    4.30674265
     atom   48 type  2   force =     0.02415340    7.72559556   12.45368986
     atom   49 type  2   force =    14.98731301   -4.63320202   -2.14057105
     atom   50 type  2   force =     4.20487667   -2.65776736   -9.92156183
     atom   51 type  2   force =     2.44800315   -4.08378987   10.93397132
     atom   52 type  2   force =     9.95581772   -2.56584503   12.19515534
     atom   53 type  2   force =    -8.36526543    1.55151195    6.81865896
     atom   54 type  2   force =   -12.38013934    4.58424731   -4.30122679
     atom   55 type  2   force =    -6.26821632   -4.04861174   10.58430435
     atom   56 type  2   force =    12.73420947    3.88779318   -0.38290844
     atom   57 type  2   force =    -8.58417108   -8.69900425    2.68036547
     atom   58 type  2   force =    -2.25691530    2.89549797    4.05593181
     atom   59 type  2   force =    -6.07560164    7.42551813  -13.35094891
     atom   60 type  2   force =     7.49857967  -10.34873908   -7.16578703
     atom   61 type  2   force =     5.32628981  -13.39354816    1.51640946
     atom   62 type  2   force =     6.87914154    6.17546023  -12.65579024
     atom   63 type  2   force =    -9.46230343   -1.15079247  -13.32660922
     atom   64 type  2   force =    10.30540666   10.80254599    0.40138919
     atom   65 type  2   force =    -2.17354715   14.69850292    2.95244804
     atom   66 type  2   force =   -11.33760509    0.82561863    4.05771895
     The core correction contribution to forces
     atom    1 type  1   force =     0.00000000    0.00000000    0.00000000
     atom    2 type  1   force =     0.00000000    0.00000000    0.00000000
     atom    3 type  1   force =     0.00000000    0.00000000    0.00000000
     atom    4 type  1   force =     0.00000000    0.00000000    0.00000000
     atom    5 type  1   force =     0.00000000    0.00000000    0.00000000
     atom    6 type  1   force =     0.00000000    0.00000000    0.00000000
     atom    7 type  1   force =     0.00000000    0.00000000    0.00000000
     atom    8 type  1   force =     0.00000000    0.00000000    0.00000000
     atom    9 type  1   force =     0.00000000    0.00000000    0.00000000
     atom   10 type  1   force =     0.00000000    0.00000000    0.00000000
     atom   11 type  1   force =     0.00000000    0.00000000    0.00000000
     atom   12 type  1   force =     0.00000000    0.00000000    0.00000000
     atom   13 type  1   force =     0.00000000    0.00000000    0.00000000
     atom   14 type  1   force =     0.00000000    0.00000000    0.00000000
     atom   15 type  1   force =     0.00000000    0.00000000    0.00000000
     atom   16 type  1   force =     0.00000000    0.00000000    0.00000000
     atom   17 type  1   force =     0.00000000    0.00000000    0.00000000
     atom   18 type  1   force =     0.00000000    0.00000000    0.00000000
     atom   19 type  1   force =     0.00000000    0.00000000    0.00000000
     atom   20 type  1   force =     0.00000000    0.00000000    0.00000000
     atom   21 type  1   force =     0.00000000    0.00000000    0.00000000
     atom   22 type  1   force =     0.00000000    0.00000000    0.00000000
     atom   23 type  1   force =     0.00000000    0.00000000    0.00000000
     atom   24 type  1   force =     0.00000000    0.00000000    0.00000000
     atom   25 type  1   force =     0.00000000    0.00000000    0.00000000
     atom   26 type  1   force =     0.00000000    0.00000000    0.00000000
     atom   27 type  1   force =     0.00000000    0.00000000    0.00000000
     atom   28 type  1   force =     0.00000000    0.00000000    0.00000000
     atom   29 type  1   force =     0.00000000    0.00000000    0.00000000
     atom   30 type  1   force =     0.00000000    0.00000000    0.00000000
     atom   31 type  1   force =     0.00000000    0.00000000    0.00000000
     atom   32 type  1   force =     0.00000000    0.00000000    0.00000000
     atom   33 type  1   force =     0.00000000    0.00000000    0.00000000
     atom   34 type  1   force =     0.00000000    0.00000000    0.00000000
     atom   35 type  1   force =     0.00000000    0.00000000    0.00000000
     atom   36 type  1   force =     0.00000000    0.00000000    0.00000000
     atom   37 type  1   force =     0.00000000    0.00000000    0.00000000
     atom   38 type  1   force =     0.00000000    0.00000000    0.00000000
     atom   39 type  1   force =     0.00000000    0.00000000    0.00000000
     atom   40 type  1   force =     0.00000000    0.00000000    0.00000000
     atom   41 type  1   force =     0.00000000    0.00000000    0.00000000
     atom   42 type  1   force =     0.00000000    0.00000000    0.00000000
     atom   43 type  1   force =     0.00000000    0.00000000    0.00000000
     atom   44 type  1   force =     0.00000000    0.00000000    0.00000000
     atom   45 type  2   force =     0.00696857    0.01664672    0.00560952
     atom   46 type  2   force =     0.00434203   -0.01059403    0.01700093
     atom   47 type  2   force =     0.01604547   -0.00458694   -0.01348265
     atom   48 type  2   force =     0.00036320   -0.01669454    0.01121168
     atom   49 type  2   force =    -0.01140293    0.01009110    0.01637357
     atom   50 type  2   force =    -0.01390862    0.00707344   -0.00997678
     atom   51 type  2   force =     0.00905023    0.01501883   -0.00440748
     atom   52 type  2   force =     0.00181196    0.00238349   -0.01884703
     atom   53 type  2   force =    -0.00085826    0.02381008   -0.00220109
     atom   54 type  2   force =    -0.01972729    0.00084730    0.00091925
     atom   55 type  2   force =     0.01079016   -0.01278025   -0.00488332
     atom   56 type  2   force =    -0.01083786    0.01409142   -0.01003776
     atom   57 type  2   force =    -0.00052030   -0.02025233    0.00297332
     atom   58 type  2   force =    -0.00772145    0.00848506   -0.01400131
     atom   59 type  2   force =    -0.00716026   -0.00541856    0.01541484
     atom   60 type  2   force =     0.00868586    0.00528158   -0.01909366
     atom   61 type  2   force =     0.00374554    0.01807278    0.00130542
     atom   62 type  2   force =    -0.01227730    0.00971143   -0.01091745
     atom   63 type  2   force =    -0.00625757   -0.01083519    0.01537691
     atom   64 type  2   force =     0.00595993    0.00614057   -0.01977909
     atom   65 type  2   force =     0.00224250    0.00202993    0.02028782
     atom   66 type  2   force =    -0.00070624   -0.00855381    0.01276032
     The Hubbard contrib.    to forces
     atom    1 type  1   force =     0.00000000    0.00000000    0.00000000
     atom    2 type  1   force =     0.00000000    0.00000000    0.00000000
     atom    3 type  1   force =     0.00000000    0.00000000    0.00000000
     atom    4 type  1   force =     0.00000000    0.00000000    0.00000000
     atom    5 type  1   force =     0.00000000    0.00000000    0.00000000
     atom    6 type  1   force =     0.00000000    0.00000000    0.00000000
     atom    7 type  1   force =     0.00000000    0.00000000    0.00000000
     atom    8 type  1   force =     0.00000000    0.00000000    0.00000000
     atom    9 type  1   force =     0.00000000    0.00000000    0.00000000
     atom   10 type  1   force =     0.00000000    0.00000000    0.00000000
     atom   11 type  1   force =     0.00000000    0.00000000    0.00000000
     atom   12 type  1   force =     0.00000000    0.00000000    0.00000000
     atom   13 type  1   force =     0.00000000    0.00000000    0.00000000
     atom   14 type  1   force =     0.00000000    0.00000000    0.00000000
     atom   15 type  1   force =     0.00000000    0.00000000    0.00000000
     atom   16 type  1   force =     0.00000000    0.00000000    0.00000000
     atom   17 type  1   force =     0.00000000    0.00000000    0.00000000
     atom   18 type  1   force =     0.00000000    0.00000000    0.00000000
     atom   19 type  1   force =     0.00000000    0.00000000    0.00000000
     atom   20 type  1   force =     0.00000000    0.00000000    0.00000000
     atom   21 type  1   force =     0.00000000    0.00000000    0.00000000
     atom   22 type  1   force =     0.00000000    0.00000000    0.00000000
     atom   23 type  1   force =     0.00000000    0.00000000    0.00000000
     atom   24 type  1   force =     0.00000000    0.00000000    0.00000000
     atom   25 type  1   force =     0.00000000    0.00000000    0.00000000
     atom   26 type  1   force =     0.00000000    0.00000000    0.00000000
     atom   27 type  1   force =     0.00000000    0.00000000    0.00000000
     atom   28 type  1   force =     0.00000000    0.00000000    0.00000000
     atom   29 type  1   force =     0.00000000    0.00000000    0.00000000
     atom   30 type  1   force =     0.00000000    0.00000000    0.00000000
     atom   31 type  1   force =     0.00000000    0.00000000    0.00000000
     atom   32 type  1   force =     0.00000000    0.00000000    0.00000000
     atom   33 type  1   force =     0.00000000    0.00000000    0.00000000
     atom   34 type  1   force =     0.00000000    0.00000000    0.00000000
     atom   35 type  1   force =     0.00000000    0.00000000    0.00000000
     atom   36 type  1   force =     0.00000000    0.00000000    0.00000000
     atom   37 type  1   force =     0.00000000    0.00000000    0.00000000
     atom   38 type  1   force =     0.00000000    0.00000000    0.00000000
     atom   39 type  1   force =     0.00000000    0.00000000    0.00000000
     atom   40 type  1   force =     0.00000000    0.00000000    0.00000000
     atom   41 type  1   force =     0.00000000    0.00000000    0.00000000
     atom   42 type  1   force =     0.00000000    0.00000000    0.00000000
     atom   43 type  1   force =     0.00000000    0.00000000    0.00000000
     atom   44 type  1   force =     0.00000000    0.00000000    0.00000000
     atom   45 type  2   force =     0.00000000    0.00000000    0.00000000
     atom   46 type  2   force =     0.00000000    0.00000000    0.00000000
     atom   47 type  2   force =     0.00000000    0.00000000    0.00000000
     atom   48 type  2   force =     0.00000000    0.00000000    0.00000000
     atom   49 type  2   force =     0.00000000    0.00000000    0.00000000
     atom   50 type  2   force =     0.00000000    0.00000000    0.00000000
     atom   51 type  2   force =     0.00000000    0.00000000    0.00000000
     atom   52 type  2   force =     0.00000000    0.00000000    0.00000000
     atom   53 type  2   force =     0.00000000    0.00000000    0.00000000
     atom   54 type  2   force =     0.00000000    0.00000000    0.00000000
     atom   55 type  2   force =     0.00000000    0.00000000    0.00000000
     atom   56 type  2   force =     0.00000000    0.00000000    0.00000000
     atom   57 type  2   force =     0.00000000    0.00000000    0.00000000
     atom   58 type  2   force =     0.00000000    0.00000000    0.00000000
     atom   59 type  2   force =     0.00000000    0.00000000    0.00000000
     atom   60 type  2   force =     0.00000000    0.00000000    0.00000000
     atom   61 type  2   force =     0.00000000    0.00000000    0.00000000
     atom   62 type  2   force =     0.00000000    0.00000000    0.00000000
     atom   63 type  2   force =     0.00000000    0.00000000    0.00000000
     atom   64 type  2   force =     0.00000000    0.00000000    0.00000000
     atom   65 type  2   force =     0.00000000    0.00000000    0.00000000
     atom   66 type  2   force =     0.00000000    0.00000000    0.00000000
     The SCF correction term to forces
     atom    1 type  1   force =    -0.00001529   -0.00000477   -0.00000031
     atom    2 type  1   force =     0.00000827   -0.00000797   -0.00000573
     atom    3 type  1   force =    -0.00000449    0.00000731   -0.00000148
     atom    4 type  1   force =     0.00000266   -0.00000040   -0.00000856
     atom    5 type  1   force =     0.00000015    0.00000198    0.00000003
     atom    6 type  1   force =     0.00000200   -0.00000261   -0.00000118
     atom    7 type  1   force =     0.00000081    0.00000450    0.00000046
     atom    8 type  1   force =    -0.00000158    0.00000269   -0.00000608
     atom    9 type  1   force =    -0.00000365    0.00000406   -0.00000022
     atom   10 type  1   force =    -0.00000089    0.00000034    0.00000146
     atom   11 type  1   force =     0.00000029   -0.00000616    0.00000759
     atom   12 type  1   force =     0.00000308    0.00000067   -0.00000214
     atom   13 type  1   force =    -0.00000044   -0.00000483    0.00000225
     atom   14 type  1   force =    -0.00000436    0.00000028   -0.00000064
     atom   15 type  1   force =     0.00000026    0.00000152   -0.00000086
     atom   16 type  1   force =     0.00000101   -0.00000046   -0.00000109
     atom   17 type  1   force =    -0.00000512   -0.00001243   -0.00000724
     atom   18 type  1   force =     0.00000736   -0.00001069    0.00000844
     atom   19 type  1   force =     0.00000860   -0.00000391    0.00000228
     atom   20 type  1   force =     0.00000328    0.00000112   -0.00000248
     atom   21 type  1   force =    -0.00000792   -0.00000122   -0.00000140
     atom   22 type  1   force =     0.00000405    0.00000456   -0.00000032
     atom   23 type  1   force =    -0.00000132   -0.00000885    0.00000130
     atom   24 type  1   force =     0.00000556    0.00000157    0.00000287
     atom   25 type  1   force =     0.00000480    0.00000494   -0.00000187
     atom   26 type  1   force =    -0.00000307    0.00000340    0.00000185
     atom   27 type  1   force =     0.00000104    0.00000314   -0.00000200
     atom   28 type  1   force =    -0.00000158    0.00000029   -0.00000076
     atom   29 type  1   force =    -0.00000384   -0.00000696    0.00000446
     atom   30 type  1   force =     0.00000355    0.00000206    0.00001301
     atom   31 type  1   force =    -0.00000084    0.00000020    0.00000131
     atom   32 type  1   force =    -0.00000133    0.00000008    0.00000350
     atom   33 type  1   force =     0.00000056   -0.00000148   -0.00000452
     atom   34 type  1   force =    -0.00000129   -0.00000181    0.00000193
     atom   35 type  1   force =     0.00001276    0.00000409   -0.00000273
     atom   36 type  1   force =     0.00000135   -0.00000652    0.00000688
     atom   37 type  1   force =    -0.00000057    0.00000091    0.00000017
     atom   38 type  1   force =     0.00000126   -0.00000252    0.00000012
     atom   39 type  1   force =     0.00000439    0.00000398   -0.00000250
     atom   40 type  1   force =    -0.00000570   -0.00000094   -0.00000918
     atom   41 type  1   force =     0.00000077   -0.00000457    0.00000020
     atom   42 type  1   force =     0.00000046    0.00000080   -0.00000241
     atom   43 type  1   force =    -0.00000148    0.00000021    0.00000112
     atom   44 type  1   force =    -0.00000150    0.00000005   -0.00000031
     atom   45 type  2   force =     0.00005035   -0.00000486   -0.00002658
     atom   46 type  2   force =    -0.00000624    0.00001280   -0.00001553
     atom   47 type  2   force =     0.00003434   -0.00003694   -0.00002052
     atom   48 type  2   force =     0.00000153    0.00000656    0.00000144
     atom   49 type  2   force =    -0.00000469    0.00000581    0.00000062
     atom   50 type  2   force =     0.00000163    0.00002266   -0.00001848
     atom   51 type  2   force =    -0.00001981    0.00001138   -0.00000072
     atom   52 type  2   force =     0.00001200    0.00003644    0.00000276
     atom   53 type  2   force =     0.00001395   -0.00007323   -0.00000526
     atom   54 type  2   force =     0.00002062    0.00001162   -0.00003048
     atom   55 type  2   force =     0.00003122   -0.00000401   -0.00001502
     atom   56 type  2   force =    -0.00000484   -0.00000985   -0.00000653
     atom   57 type  2   force =     0.00001117    0.00001004    0.00000313
     atom   58 type  2   force =    -0.00002842   -0.00000893   -0.00001553
     atom   59 type  2   force =    -0.00001267   -0.00001470    0.00005613
     atom   60 type  2   force =     0.00000882   -0.00001442    0.00001238
     atom   61 type  2   force =     0.00002901    0.00001764   -0.00002538
     atom   62 type  2   force =     0.00001269    0.00003178   -0.00002527
     atom   63 type  2   force =     0.00001315   -0.00005032   -0.00000055
     atom   64 type  2   force =     0.00000858    0.00002268   -0.00001276
     atom   65 type  2   force =     0.00000357    0.00002146   -0.00000875
     atom   66 type  2   force =    -0.00002747   -0.00000266    0.00003262

     Total force =     0.510751     Total SCF correction =     0.000188


     Computing stress (Cartesian axis) and pressure


     negative rho (up, down):  5.119E-01 0.000E+00
          total   stress  (Ry/bohr**3)                   (kbar)     P=       -2.87
  -0.00001982  -0.00000051   0.00000015           -2.91       -0.08        0.02
  -0.00000051  -0.00001931  -0.00000065           -0.08       -2.84       -0.10
   0.00000015  -0.00000065  -0.00001941            0.02       -0.10       -2.86


     init_run     :      8.11s CPU      8.56s WALL (       1 calls)
     electrons    :     91.99s CPU     98.36s WALL (       1 calls)
     forces       :      6.38s CPU      6.76s WALL (       1 calls)
     stress       :     16.74s CPU     17.11s WALL (       1 calls)

     Called by init_run:
     wfcinit      :      3.10s CPU      3.28s WALL (       1 calls)
     potinit      :      1.31s CPU      1.37s WALL (       1 calls)
     hinit0       :      1.00s CPU      1.06s WALL (       1 calls)

     Called by electrons:
     c_bands      :     60.95s CPU     64.18s WALL (      11 calls)
     sum_band     :     17.70s CPU     19.16s WALL (      11 calls)
     v_of_rho     :      7.62s CPU      8.24s WALL (      12 calls)
     newd         :      3.82s CPU      4.87s WALL (      12 calls)
     PAW_pot      :      1.12s CPU      1.13s WALL (      12 calls)
     mix_rho      :      1.58s CPU      1.68s WALL (      11 calls)

     Called by c_bands:
     init_us_2    :      0.90s CPU      0.92s WALL (      23 calls)
     init_us_2:cp :      0.90s CPU      0.92s WALL (      23 calls)
     regterg      :     59.87s CPU     63.10s WALL (      11 calls)

     Called by *egterg:
     rdiaghg      :      0.24s CPU      0.25s WALL (      36 calls)
     h_psi        :     53.80s CPU     56.55s WALL (      37 calls)
     s_psi        :      1.53s CPU      1.54s WALL (      37 calls)
     g_psi        :      0.17s CPU      0.18s WALL (      25 calls)

     Called by h_psi:
     h_psi:calbec :      1.40s CPU      1.41s WALL (      37 calls)
     vloc_psi     :     50.37s CPU     53.09s WALL (      37 calls)
     add_vuspsi   :      1.51s CPU      1.51s WALL (      37 calls)

     General routines
     calbec       :      2.17s CPU      2.18s WALL (      53 calls)
     fft          :      4.50s CPU      5.13s WALL (     128 calls)
     ffts         :      0.31s CPU      0.36s WALL (      11 calls)
     fftw         :     43.14s CPU     46.25s WALL (    3186 calls)

     Parallel routines

     PWSCF        :   2m 3.36s CPU   2m10.99s WALL


   This run was terminated on:   7:57:34  27Mar2024            

=------------------------------------------------------------------------------=
   JOB DONE.
=------------------------------------------------------------------------------=
