
     Program PWSCF v.7.2 starts on 27Mar2024 at  2:40:20 

     This program is part of the open-source Quantum ESPRESSO suite
     for quantum simulation of materials; please cite
         "P. Giannozzi et al., J. Phys.:Condens. Matter 21 395502 (2009);
         "P. Giannozzi et al., J. Phys.:Condens. Matter 29 465901 (2017);
         "P. Giannozzi et al., J. Chem. Phys. 152 154105 (2020);
          URL http://www.quantum-espresso.org", 
     in publications or presentations arising from this work. More details at
     http://www.quantum-espresso.org/quote

     Parallel version (MPI), running on    32 processors

     MPI processes distributed on     1 nodes
     170346 MiB available memory on the printing compute node when the environment starts

     Reading input from pw-wt-10.in
Warning: card &CELL ignored
Warning: card / ignored

     Current dimensions of program PWSCF are:
     Max number of different atomic species (ntypx) = 10
     Max number of k-points (npk) =  40000
     Max angular momentum in pseudopotentials (lmaxx) =  4
     file O.pbe-n-kjpaw_psl.0.1.UPF: wavefunction(s)  2P renormalized

     IMPORTANT: XC functional enforced from input :
     Exchange-correlation= PBE
                           (   1   4   3   4   0   0   0)
     Any further DFT definition will be discarded
     Please, verify this is what you really want


     gamma-point specific algorithms are used

     R & G space division:  proc/nbgrp/npool/nimage =      32
     Subspace diagonalization in iterative solution of the eigenvalue problem:
     a serial algorithm will be used


     Parallelization info
     --------------------
     sticks:   dense  smooth     PW     G-vecs:    dense   smooth      PW
     Min        1707    1707    426               301015   301015   37634
     Max        1710    1710    428               301034   301034   37648
     Sum       54693   54693  13673              9632757  9632757 1204469

     Using Slab Decomposition



     bravais-lattice index     =            0
     lattice parameter (alat)  =      75.7119  a.u.
     unit-cell volume          =  434002.3113 (a.u.)^3
     number of atoms/cell      =           66
     number of atomic types    =            2
     number of electrons       =       176.00
     number of Kohn-Sham states=           88
     kinetic-energy cutoff     =      30.0000  Ry
     charge density cutoff     =     120.0000  Ry
     scf convergence threshold =      1.0E-06
     mixing beta               =       0.5000
     number of iterations used =            8  plain     mixing
     Exchange-correlation= PBE
                           (   1   4   3   4   0   0   0)

     celldm(1)=  75.711877  celldm(2)=   0.000000  celldm(3)=   0.000000
     celldm(4)=   0.000000  celldm(5)=   0.000000  celldm(6)=   0.000000

     crystal axes: (cart. coord. in units of alat)
               a(1) = (   1.000000   0.000000   0.000000 )  
               a(2) = (   0.000000   1.000000   0.000000 )  
               a(3) = (   0.000000   0.000000   1.000000 )  

     reciprocal axes: (cart. coord. in units 2 pi/alat)
               b(1) = (  1.000000  0.000000  0.000000 )  
               b(2) = (  0.000000  1.000000  0.000000 )  
               b(3) = (  0.000000  0.000000  1.000000 )  


     PseudoPot. # 1 for H  read from file:
     /share/pfaendtnergroup/rverma7/QE_PP/H.pbe-rrkjus_psl.1.0.0.UPF
     MD5 check sum: f52b6d4d1c606e5624b1dc7b2218f220
     Pseudo is Ultrasoft, Zval =  1.0
     Generated using "atomic" code by A. Dal Corso  v.5.1
     Using radial grid of  929 points,  2 beta functions with: 
                l(1) =   0
                l(2) =   0
     Q(r) pseudized with 0 coefficients 


     PseudoPot. # 2 for O  read from file:
     /share/pfaendtnergroup/rverma7/QE_PP/O.pbe-n-kjpaw_psl.0.1.UPF
     MD5 check sum: 0234752ac141de4415c5fc33072bef88
     Pseudo is Projector augmented-wave + core cor, Zval =  6.0
     Generated using "atomic" code by A. Dal Corso  v.5.0.99 svn rev. 10869
     Shape of augmentation charge: BESSEL
     Using radial grid of 1095 points,  4 beta functions with: 
                l(1) =   0
                l(2) =   0
                l(3) =   1
                l(4) =   1
     Q(r) pseudized with 0 coefficients 


     atomic species   valence    mass     pseudopotential
        H              1.00     1.00800     H ( 1.00)
        O              6.00    15.99900     O ( 1.00)

     No symmetry found



   Cartesian axes

     site n.     atom                  positions (alat units)
         1           H   tau(   1) = (   0.2819169   0.3726445   0.4764258  )
         2           H   tau(   2) = (   0.3048297   0.3503557   0.4526894  )
         3           H   tau(   3) = (   0.3612130   0.2322975   0.2699613  )
         4           H   tau(   4) = (   0.3539249   0.2017472   0.2992887  )
         5           H   tau(   5) = (   0.3208287   0.3091227   0.3658804  )
         6           H   tau(   6) = (   0.3370024   0.3452140   0.3672033  )
         7           H   tau(   7) = (   0.2822164   0.1041058   0.3136154  )
         8           H   tau(   8) = (   0.2829901   0.1435417   0.3195807  )
         9           H   tau(   9) = (   0.2652440   0.3128416   0.4888556  )
        10           H   tau(  10) = (   0.2574816   0.2771996   0.4826407  )
        11           H   tau(  11) = (   0.2772994   0.1519281   0.4782478  )
        12           H   tau(  12) = (   0.2508424   0.1729440   0.4595283  )
        13           H   tau(  13) = (   0.3889430   0.2739548   0.4248596  )
        14           H   tau(  14) = (   0.3632347   0.2835143   0.3937601  )
        15           H   tau(  15) = (   0.2955198   0.2245601   0.4296019  )
        16           H   tau(  16) = (   0.3049295   0.1994509   0.4568826  )
        17           H   tau(  17) = (   0.2749782   0.2754524   0.3885686  )
        18           H   tau(  18) = (   0.2511918   0.2414576   0.3996006  )
        19           H   tau(  19) = (   0.2585049   0.1922626   0.3655061  )
        20           H   tau(  20) = (   0.2217896   0.2066143   0.3584675  )
        21           H   tau(  21) = (   0.3107950   0.1793086   0.3400225  )
        22           H   tau(  22) = (   0.2816423   0.1972794   0.3165855  )
        23           H   tau(  23) = (   0.2246849   0.1816548   0.4093348  )
        24           H   tau(  24) = (   0.1915887   0.1723699   0.4318732  )
        25           H   tau(  25) = (   0.3068763   0.2388369   0.2945713  )
        26           H   tau(  26) = (   0.2695370   0.2258330   0.2828154  )
        27           H   tau(  27) = (   0.3561962   0.1870710   0.3629352  )
        28           H   tau(  28) = (   0.3712218   0.1560714   0.3398977  )
        29           H   tau(  29) = (   0.3274179   0.2462249   0.4725821  )
        30           H   tau(  30) = (   0.3170598   0.2735056   0.5032073  )
        31           H   tau(  31) = (   0.3602147   0.3203295   0.4581805  )
        32           H   tau(  32) = (   0.3462124   0.3304131   0.4188943  )
        33           H   tau(  33) = (   0.2247847   0.3188569   0.3744665  )
        34           H   tau(  34) = (   0.2054911   0.3123924   0.3405466  )
        35           H   tau(  35) = (   0.2633471   0.1698240   0.2827905  )
        36           H   tau(  36) = (   0.2305504   0.1776363   0.2590291  )
        37           H   tau(  37) = (   0.2678398   0.2967428   0.3495819  )
        38           H   tau(  38) = (   0.2859104   0.2617247   0.3345064  )
        39           H   tau(  39) = (   0.3712218   0.2730064   0.4802196  )
        40           H   tau(  40) = (   0.4111569   0.2774741   0.4856358  )
        41           H   tau(  41) = (   0.2398103   0.2921253   0.4172470  )
        42           H   tau(  42) = (   0.2462498   0.3281418   0.4313740  )
        43           H   tau(  43) = (   0.3495320   0.2064146   0.4150505  )
        44           H   tau(  44) = (   0.3735680   0.2323724   0.3961313  )
        45           O   tau(  45) = (   0.2798203   0.3549232   0.4592787  )
        46           O   tau(  46) = (   0.3453388   0.2228379   0.2864345  )
        47           O   tau(  47) = (   0.3379259   0.3230750   0.3750655  )
        48           O   tau(  48) = (   0.2816673   0.1254462   0.3020841  )
        49           O   tau(  49) = (   0.2683639   0.2906527   0.5003869  )
        50           O   tau(  50) = (   0.2751279   0.1742918   0.4691626  )
        51           O   tau(  51) = (   0.3833770   0.2692375   0.4000499  )
        52           O   tau(  52) = (   0.3166105   0.2194184   0.4435792  )
        53           O   tau(  53) = (   0.2655934   0.2608012   0.4087857  )
        54           O   tau(  54) = (   0.2381131   0.2011981   0.3771871  )
        55           O   tau(  55) = (   0.2845376   0.1800574   0.3372270  )
        56           O   tau(  56) = (   0.2166230   0.1714214   0.4315238  )
        57           O   tau(  57) = (   0.2810932   0.2417072   0.2992387  )
        58           O   tau(  58) = (   0.3528766   0.1731686   0.3416448  )
        59           O   tau(  59) = (   0.3372769   0.2603020   0.4920005  )
        60           O   tau(  60) = (   0.3447398   0.3360040   0.4446025  )
        61           O   tau(  61) = (   0.2274554   0.3074005   0.3517784  )
        62           O   tau(  62) = (   0.2498939   0.1875702   0.2728566  )
        63           O   tau(  63) = (   0.2893049   0.2824161   0.3505054  )
        64           O   tau(  64) = (   0.3936353   0.2828404   0.4683140  )
        65           O   tau(  65) = (   0.2293273   0.3140646   0.4211406  )
        66           O   tau(  66) = (   0.3662798   0.2075128   0.3949832  )

     number of k points=     1
                       cart. coord. in units 2pi/alat
        k(    1) = (   0.0000000   0.0000000   0.0000000), wk =   2.0000000

     Dense  grid:  4816379 G-vectors     FFT dimensions: ( 270, 270, 270)

     Estimated max dynamical RAM per process >     612.29 MB

     Estimated total dynamical RAM >      19.13 GB

     Check: negative core charge=   -0.000006

     Initial potential from superposition of free atoms

     starting charge     175.9995, renormalised to     176.0000

     negative rho (up, down):  3.686E-01 0.000E+00
     Starting wfcs are  132 randomized atomic wfcs
     Checking if some PAW data can be deallocated... 

     total cpu time spent up to now is        8.8 secs

     Self-consistent Calculation

     iteration #  1     ecut=    30.00 Ry     beta= 0.50
     Davidson diagonalization with overlap
     ethr =  1.00E-02,  avg # of iterations =  2.0

     negative rho (up, down):  4.359E-01 0.000E+00

     total cpu time spent up to now is       17.8 secs

     total energy              =    -965.81182329 Ry
     estimated scf accuracy    <       6.85660194 Ry

     iteration #  2     ecut=    30.00 Ry     beta= 0.50
     Davidson diagonalization with overlap
     ethr =  3.90E-03,  avg # of iterations =  2.0

     negative rho (up, down):  4.559E-01 0.000E+00

     total cpu time spent up to now is       27.6 secs

     total energy              =    -967.74012473 Ry
     estimated scf accuracy    <       0.99256601 Ry

     iteration #  3     ecut=    30.00 Ry     beta= 0.50
     Davidson diagonalization with overlap
     ethr =  5.64E-04,  avg # of iterations =  2.0

     negative rho (up, down):  5.016E-01 0.000E+00

     total cpu time spent up to now is       37.7 secs

     total energy              =    -967.78765723 Ry
     estimated scf accuracy    <       0.13104060 Ry

     iteration #  4     ecut=    30.00 Ry     beta= 0.50
     Davidson diagonalization with overlap
     ethr =  7.45E-05,  avg # of iterations =  3.0

     negative rho (up, down):  5.008E-01 0.000E+00

     total cpu time spent up to now is       47.6 secs

     total energy              =    -967.81304478 Ry
     estimated scf accuracy    <       0.04572646 Ry

     iteration #  5     ecut=    30.00 Ry     beta= 0.50
     Davidson diagonalization with overlap
     ethr =  2.60E-05,  avg # of iterations =  2.0

     negative rho (up, down):  4.997E-01 0.000E+00

     total cpu time spent up to now is       55.5 secs

     total energy              =    -967.81364045 Ry
     estimated scf accuracy    <       0.00875624 Ry

     iteration #  6     ecut=    30.00 Ry     beta= 0.50
     Davidson diagonalization with overlap
     ethr =  4.98E-06,  avg # of iterations =  2.0

     negative rho (up, down):  4.987E-01 0.000E+00

     total cpu time spent up to now is       63.7 secs

     total energy              =    -967.81383160 Ry
     estimated scf accuracy    <       0.00181279 Ry

     iteration #  7     ecut=    30.00 Ry     beta= 0.50
     Davidson diagonalization with overlap
     ethr =  1.03E-06,  avg # of iterations =  2.0

     negative rho (up, down):  4.984E-01 0.000E+00

     total cpu time spent up to now is       72.7 secs

     total energy              =    -967.81412052 Ry
     estimated scf accuracy    <       0.00009251 Ry

     iteration #  8     ecut=    30.00 Ry     beta= 0.50
     Davidson diagonalization with overlap
     ethr =  5.26E-08,  avg # of iterations =  3.0

     negative rho (up, down):  4.985E-01 0.000E+00

     total cpu time spent up to now is       82.8 secs

     total energy              =    -967.81416012 Ry
     estimated scf accuracy    <       0.00001728 Ry

     iteration #  9     ecut=    30.00 Ry     beta= 0.50
     Davidson diagonalization with overlap
     ethr =  9.82E-09,  avg # of iterations =  2.0

     negative rho (up, down):  4.985E-01 0.000E+00

     total cpu time spent up to now is       90.6 secs

     total energy              =    -967.81415811 Ry
     estimated scf accuracy    <       0.00000745 Ry

     iteration # 10     ecut=    30.00 Ry     beta= 0.50
     Davidson diagonalization with overlap
     ethr =  4.23E-09,  avg # of iterations =  2.0

     negative rho (up, down):  4.985E-01 0.000E+00

     total cpu time spent up to now is       99.4 secs

     End of self-consistent calculation

          k = 0.0000 0.0000 0.0000 (602235 PWs)   bands (ev):

   -26.1695 -25.9883 -25.8649 -25.6094 -25.4885 -25.3873 -25.3728 -25.1789
   -25.0767 -24.8589 -24.7925 -24.7198 -24.6674 -24.6421 -24.5535 -24.4690
   -24.4380 -24.2210 -24.0283 -23.8495 -23.6290 -23.4110 -14.2943 -14.0778
   -13.8130 -13.7124 -13.5872 -13.4183 -13.2698 -13.1376 -12.9741 -12.7282
   -12.6399 -12.6122 -12.5208 -12.5142 -12.2105 -12.1347 -12.0839 -12.0435
   -11.9464 -11.7641 -11.7130 -11.5204 -11.1818 -11.0102 -10.6851 -10.4509
   -10.3266 -10.1276  -9.9295  -9.7546  -9.6934  -9.6073  -9.3892  -9.3196
    -9.1723  -9.1511  -8.9749  -8.8902  -8.5993  -8.4989  -8.4531  -8.3193
    -8.1377  -8.0967  -8.0644  -7.9163  -7.8814  -7.8189  -7.6299  -7.6013
    -7.5591  -7.5253  -7.4611  -7.2485  -7.1407  -7.0101  -6.9715  -6.8937
    -6.7968  -6.7607  -6.6833  -6.5928  -6.5485  -6.4819  -6.3455  -6.2188

     highest occupied level (ev):    -6.2188

!    total energy              =    -967.81415907 Ry
     estimated scf accuracy    <       0.00000034 Ry

     The total energy is the sum of the following terms:
     one-electron contribution =   -5783.02295773 Ry
     hartree contribution      =    2926.69700986 Ry
     xc contribution           =    -193.60905708 Ry
     ewald contribution        =    2291.43479753 Ry
     one-center paw contrib.   =    -209.31395166 Ry

     convergence has been achieved in  10 iterations

     negative rho (up, down):  4.985E-01 0.000E+00

     Forces acting on atoms (cartesian axes, Ry/au):

     atom    1 type  1   force =    -0.00643290   -0.01421679   -0.01740267
     atom    2 type  1   force =    -0.04630408   -0.00497115    0.01997238
     atom    3 type  1   force =    -0.00564807   -0.02750907    0.02714081
     atom    4 type  1   force =    -0.01036669    0.07044763   -0.03650193
     atom    5 type  1   force =    -0.05690559   -0.03107053   -0.04133765
     atom    6 type  1   force =    -0.01144167    0.05655923   -0.03357598
     atom    7 type  1   force =    -0.00204690   -0.00458582    0.00448939
     atom    8 type  1   force =    -0.00040298   -0.01899067   -0.00077493
     atom    9 type  1   force =     0.02277055   -0.01133901    0.02337791
     atom   10 type  1   force =     0.01060363   -0.00962286    0.01968768
     atom   11 type  1   force =     0.01557567   -0.01218388    0.00960984
     atom   12 type  1   force =     0.05145119    0.01652295    0.00889723
     atom   13 type  1   force =    -0.01350462   -0.00450619   -0.04191948
     atom   14 type  1   force =     0.05560999   -0.02366811    0.01914589
     atom   15 type  1   force =     0.06252779    0.02455266    0.02248715
     atom   16 type  1   force =     0.03769103    0.04735375   -0.02946279
     atom   17 type  1   force =    -0.01688735   -0.08416563    0.03489819
     atom   18 type  1   force =     0.04114189    0.05341473   -0.00177737
     atom   19 type  1   force =     0.00586494   -0.00219696   -0.01461072
     atom   20 type  1   force =     0.04183448   -0.01453825    0.04645607
     atom   21 type  1   force =    -0.05439203   -0.00945244   -0.00381169
     atom   22 type  1   force =     0.01337271   -0.04245619    0.09939296
     atom   23 type  1   force =    -0.02283451   -0.01180835    0.02527382
     atom   24 type  1   force =     0.04968744    0.00197701   -0.00153955
     atom   25 type  1   force =    -0.05975223    0.00012114   -0.00255234
     atom   26 type  1   force =     0.01195783    0.03125620    0.02419377
     atom   27 type  1   force =     0.02939497    0.01007840    0.01826059
     atom   28 type  1   force =    -0.04207618    0.03431988    0.01326709
     atom   29 type  1   force =     0.00510523    0.02354598    0.03093963
     atom   30 type  1   force =     0.07023228   -0.04980443   -0.05993510
     atom   31 type  1   force =    -0.03865225    0.04018172   -0.05197061
     atom   32 type  1   force =    -0.00208619    0.00417655    0.08568269
     atom   33 type  1   force =     0.00729424   -0.02518921   -0.01080692
     atom   34 type  1   force =     0.04871389   -0.01094387    0.01271577
     atom   35 type  1   force =    -0.01286361   -0.03848529   -0.01528667
     atom   36 type  1   force =     0.07455168    0.02110139    0.05104390
     atom   37 type  1   force =     0.03098467   -0.03958560   -0.03062020
     atom   38 type  1   force =    -0.00826654    0.06875327    0.03649474
     atom   39 type  1   force =     0.03429498    0.02223668   -0.02670124
     atom   40 type  1   force =    -0.02904071    0.01448309   -0.04248370
     atom   41 type  1   force =     0.01888849   -0.02230645    0.00856376
     atom   42 type  1   force =     0.01674637    0.01542301    0.01313193
     atom   43 type  1   force =     0.03901436    0.00535832   -0.05752444
     atom   44 type  1   force =    -0.00291336   -0.01868278   -0.00650304
     atom   45 type  2   force =     0.05567178    0.00354128    0.00050226
     atom   46 type  2   force =     0.01498828   -0.04305693    0.02235317
     atom   47 type  2   force =     0.07080810   -0.02623474    0.07455579
     atom   48 type  2   force =    -0.00088451    0.00850808   -0.01207456
     atom   49 type  2   force =    -0.02187604    0.02099159   -0.04289589
     atom   50 type  2   force =    -0.07692941   -0.00943059   -0.01834649
     atom   51 type  2   force =    -0.02660528    0.04346815    0.02868860
     atom   52 type  2   force =    -0.09582023   -0.06503347   -0.00152933
     atom   53 type  2   force =    -0.01419456   -0.02021451   -0.03130162
     atom   54 type  2   force =    -0.05145155    0.03174006   -0.03417945
     atom   55 type  2   force =     0.06682712    0.06701979   -0.07395436
     atom   56 type  2   force =    -0.02559732    0.00325453   -0.00701528
     atom   57 type  2   force =     0.05590449   -0.04802757   -0.03695091
     atom   58 type  2   force =     0.01398432   -0.02278514   -0.03480033
     atom   59 type  2   force =    -0.07731262    0.02738054    0.02823279
     atom   60 type  2   force =     0.03216377   -0.03672069   -0.03949706
     atom   61 type  2   force =    -0.06127633    0.04046966    0.01425180
     atom   62 type  2   force =    -0.06819617    0.00259985   -0.05026456
     atom   63 type  2   force =    -0.02890523   -0.00054425   -0.01414220
     atom   64 type  2   force =    -0.02004683   -0.03056397    0.06198542
     atom   65 type  2   force =    -0.04363407    0.02955143   -0.02006577
     atom   66 type  2   force =    -0.05010956   -0.00549712    0.05842382
     The non-local contrib.  to forces
     atom    1 type  1   force =    -0.00675408   -0.07446263   -0.07220698
     atom    2 type  1   force =    -0.07697130    0.01600850    0.02183968
     atom    3 type  1   force =    -0.06435914   -0.04305894    0.07046066
     atom    4 type  1   force =    -0.02430326    0.06866390   -0.04443248
     atom    5 type  1   force =     0.08264662    0.07303452    0.04412395
     atom    6 type  1   force =     0.00138452   -0.11948978    0.03982647
     atom    7 type  1   force =    -0.00275009    0.09965241   -0.05009362
     atom    8 type  1   force =    -0.00474345   -0.06892025   -0.06314588
     atom    9 type  1   force =     0.01123691   -0.08741882    0.04384163
     atom   10 type  1   force =     0.04558376    0.05759077    0.07365270
     atom   11 type  1   force =    -0.01129187    0.10361898   -0.04304023
     atom   12 type  1   force =     0.07795584    0.00274136    0.03094827
     atom   13 type  1   force =    -0.02206302   -0.01434603   -0.08375476
     atom   14 type  1   force =     0.07372682   -0.05241193    0.02674310
     atom   15 type  1   force =     0.07234356   -0.01925362    0.04877987
     atom   16 type  1   force =     0.03240183    0.05671300   -0.03826692
     atom   17 type  1   force =    -0.02794014   -0.04231198    0.05328001
     atom   18 type  1   force =     0.04980898    0.06775853    0.02859949
     atom   19 type  1   force =    -0.07845042    0.03406750    0.04170828
     atom   20 type  1   force =     0.06226357   -0.02142676    0.06865586
     atom   21 type  1   force =    -0.07872071    0.00383154   -0.00958420
     atom   22 type  1   force =     0.00946797   -0.04706458    0.05481510
     atom   23 type  1   force =    -0.02983572   -0.03333694    0.07330237
     atom   24 type  1   force =     0.09927177   -0.00218424   -0.00388202
     atom   25 type  1   force =    -0.07919794    0.00684270    0.01291954
     atom   26 type  1   force =     0.04359162    0.05486458    0.05850510
     atom   27 type  1   force =    -0.00867539   -0.04726212   -0.06991685
     atom   28 type  1   force =    -0.07123706    0.06740114    0.00882800
     atom   29 type  1   force =     0.02957831    0.04628548    0.06302037
     atom   30 type  1   force =     0.05979985   -0.03968598   -0.03493181
     atom   31 type  1   force =    -0.05289978    0.05211744   -0.04887914
     atom   32 type  1   force =    -0.00240260    0.01478132    0.07964864
     atom   33 type  1   force =     0.00773167   -0.04041228   -0.08308425
     atom   34 type  1   force =     0.08484416   -0.01810114    0.04486269
     atom   35 type  1   force =    -0.06351684    0.07974944   -0.04669738
     atom   36 type  1   force =     0.06876005    0.03156372    0.04916983
     atom   37 type  1   force =     0.07178853   -0.04994886    0.00235930
     atom   38 type  1   force =     0.00828035    0.06229338    0.04758187
     atom   39 type  1   force =     0.05268027    0.02263244   -0.02731818
     atom   40 type  1   force =    -0.06807305    0.01988596   -0.06557935
     atom   41 type  1   force =    -0.04110993    0.09361246    0.01676353
     atom   42 type  1   force =    -0.07614025   -0.06820461   -0.04842069
     atom   43 type  1   force =     0.05324347    0.00423655   -0.06439875
     atom   44 type  1   force =    -0.02409127   -0.07578062   -0.00246826
     atom   45 type  2   force =     1.57530709    0.98990012    0.90890411
     atom   46 type  2   force =     1.71116978   -0.64824102   -0.43666871
     atom   47 type  2   force =    -1.30262729    0.81841292   -1.10328177
     atom   48 type  2   force =     0.05796668   -0.47820999    2.03070304
     atom   49 type  2   force =    -0.90414509    0.50289570   -2.10289609
     atom   50 type  2   force =    -1.13871544   -1.69555604    0.00006050
     atom   51 type  2   force =    -1.22683994    1.04379037    1.19184453
     atom   52 type  2   force =    -1.84530159   -0.74002823   -0.07524499
     atom   53 type  2   force =    -0.54895082   -0.37953866   -1.73530514
     atom   54 type  2   force =    -0.00479706   -0.20261630   -1.84325333
     atom   55 type  2   force =     1.23520178    0.88713891   -0.98509402
     atom   56 type  2   force =    -1.29649754    0.74511421   -1.19507781
     atom   57 type  2   force =     0.82827475   -1.29840215   -1.09229848
     atom   58 type  2   force =     1.31871556   -0.45391091    0.90910479
     atom   59 type  2   force =    -1.59447006    0.20854861   -0.54800507
     atom   60 type  2   force =     0.97640516   -1.41761006   -0.68924564
     atom   61 type  2   force =    -1.61782977    1.13786175    0.54436297
     atom   62 type  2   force =    -0.35350895   -1.95091139   -0.24443870
     atom   63 type  2   force =    -1.48324991   -0.28553936   -0.73127126
     atom   64 type  2   force =     0.12610185   -0.87679085    1.70210079
     atom   65 type  2   force =     1.96318834   -0.34473268    0.29358905
     atom   66 type  2   force =    -0.79916804    1.10051154    0.98102888
     The ionic contribution  to forces
     atom    1 type  1   force =    -0.19930268    4.46490916    3.45786779
     atom    2 type  1   force =     2.09130612    1.84411572    0.19278796
     atom    3 type  1   force =     3.50878556    1.58684062   -4.11036567
     atom    4 type  1   force =     2.64006760   -2.60374031   -0.61024245
     atom    5 type  1   force =    -1.27905029    0.00957742   -2.26468404
     atom    6 type  1   force =     0.73730191    5.71027040   -2.34529981
     atom    7 type  1   force =    -0.08135716   -5.28173459    1.01572013
     atom    8 type  1   force =    -0.11661470   -0.80334442    1.10610037
     atom    9 type  1   force =    -1.41840827    3.52281090    0.79380899
     atom   10 type  1   force =    -2.79737979   -1.76589345   -0.31878134
     atom   11 type  1   force =     0.29649719   -5.00918715    2.87194912
     atom   12 type  1   force =    -3.08463010   -1.52872509    0.84893880
     atom   13 type  1   force =     2.96993973    0.72731577    2.35998441
     atom   14 type  1   force =    -0.46092775    2.12698376   -1.31557172
     atom   15 type  1   force =    -2.23589362   -0.29702813   -0.65655894
     atom   16 type  1   force =    -0.20213724   -3.05949012    2.67573365
     atom   17 type  1   force =     0.32425730    1.89370615   -1.28910944
     atom   18 type  1   force =    -3.06696746   -2.00825457   -0.37707370
     atom   19 type  1   force =     0.88463805   -2.14819547   -0.89282596
     atom   20 type  1   force =    -4.43693656    0.12313738   -2.85961041
     atom   21 type  1   force =     2.58120018   -1.46812746   -0.03173490
     atom   22 type  1   force =    -0.58311679    0.57693050   -2.73875599
     atom   23 type  1   force =    -1.12085257   -0.61783258   -1.37787347
     atom   24 type  1   force =    -5.22401586   -0.92465432    0.81837616
     atom   25 type  1   force =     2.59567263    0.74485023   -2.48083037
     atom   26 type  1   force =    -1.99980821   -0.74211574   -4.09404282
     atom   27 type  1   force =     1.77682887   -0.20882059    1.46450721
     atom   28 type  1   force =     4.04466590   -3.96923371   -0.84422389
     atom   29 type  1   force =    -0.28670190   -1.55105559    0.26246113
     atom   30 type  1   force =    -1.49822213    1.45669588    3.67015117
     atom   31 type  1   force =     2.80032651    0.25414483    2.62590801
     atom   32 type  1   force =     1.31068592    1.55010064   -2.05136019
     atom   33 type  1   force =    -2.19490239    3.13233784    1.53430798
     atom   34 type  1   force =    -4.64834551    1.73813911   -2.64134830
     atom   35 type  1   force =     0.78222461   -3.34836809   -0.91573322
     atom   36 type  1   force =    -3.66986922   -1.74545846   -3.42396041
     atom   37 type  1   force =    -2.33776651    3.08440874   -1.67389523
     atom   38 type  1   force =    -0.33163511   -0.95581350   -2.39478787
     atom   39 type  1   force =     0.36010332   -0.48706673    2.60971267
     atom   40 type  1   force =     4.31639528   -0.45320038    3.51219255
     atom   41 type  1   force =    -1.04361524   -1.51985221    0.41234091
     atom   42 type  1   force =     0.60163165    3.62169059    1.77942056
     atom   43 type  1   force =    -0.03252663   -1.84519053    2.47582775
     atom   44 type  1   force =     2.67158911    1.23241431   -0.23218111
     atom   45 type  2   force =    -5.84187477   11.69291995    4.27663616
     atom   46 type  2   force =     6.86861516    1.53392949  -11.47835818
     atom   47 type  2   force =     8.42441109   10.56795465   -4.64959321
     atom   48 type  2   force =    -1.11347616  -13.17630783   -9.87187245
     atom   49 type  2   force =    -4.51151817    1.66673859   16.52804168
     atom   50 type  2   force =    -0.28036435   -7.43415276   10.50662194
     atom   51 type  2   force =    15.52698825    1.55770972   -4.70373175
     atom   52 type  2   force =     5.73368922   -5.40701147    6.83406200
     atom   53 type  2   force =    -4.85833624    0.89434416    6.35968238
     atom   54 type  2   force =   -11.46893187   -4.76746215    1.35417851
     atom   55 type  2   force =    -3.21431689   -9.54132714   -0.75935828
     atom   56 type  2   force =    -9.30415319   -9.63084944    7.18328282
     atom   57 type  2   force =    -4.51036160    6.87693945  -11.05646337
     atom   58 type  2   force =     8.08272266   -9.85869213   -5.70370364
     atom   59 type  2   force =     6.07620609   -1.28007915   15.26404940
     atom   60 type  2   force =     5.15436066   13.88707738    5.61713954
     atom   61 type  2   force =    -9.08997346    6.90917677   -8.80527038
     atom   62 type  2   force =    -7.93525193   -0.91862828  -12.78374332
     atom   63 type  2   force =     3.10065111    7.30723587   -7.20184979
     atom   64 type  2   force =    13.56171541    4.05731429    5.37896879
     atom   65 type  2   force =   -15.73985685    9.37648989    3.34891179
     atom   66 type  2   force =    12.39592210   -9.37231657   -0.18487671
     The local contribution  to forces
     atom    1 type  1   force =     0.19961760   -4.40462351   -3.40311235
     atom    2 type  1   force =    -2.06064621   -1.86505757   -0.19470629
     atom    3 type  1   force =    -3.45008297   -1.57125106    4.06699008
     atom    4 type  1   force =    -2.62614015    2.60555838    0.61812024
     atom    5 type  1   force =     1.13947798   -0.11364504    2.17916213
     atom    6 type  1   force =    -0.75014040   -5.53416381    2.27183567
     atom    7 type  1   force =     0.08205390    5.17752030   -0.96117802
     atom    8 type  1   force =     0.12095033    0.85330648   -1.04378039
     atom    9 type  1   force =     1.42991992   -3.44663920   -0.81437297
     atom   10 type  1   force =     2.76236066    1.69869264    0.26470496
     atom   11 type  1   force =    -0.26964833    4.89338915   -2.81934617
     atom   12 type  1   force =     3.05808685    1.54252830   -0.87105130
     atom   13 type  1   force =    -2.96138879   -0.71742760   -2.31817410
     atom   14 type  1   force =     0.44279260   -2.09819263    1.30793110
     atom   15 type  1   force =     2.22603949    0.34086576    0.63019702
     atom   16 type  1   force =     0.20740286    3.05015097   -2.66698144
     atom   17 type  1   force =    -0.31322132   -1.93551012    1.27065833
     atom   18 type  1   force =     3.05827909    1.99393125    0.34662911
     atom   19 type  1   force =    -0.80033963    2.11197899    0.83645854
     atom   20 type  1   force =     4.41649719   -0.11620719    2.83735254
     atom   21 type  1   force =    -2.55684809    1.45488326    0.03744783
     atom   22 type  1   force =     0.58701620   -0.57226312    2.78324676
     atom   23 type  1   force =     1.12784125    0.63939379    1.32980354
     atom   24 type  1   force =     5.17443026    0.92885235   -0.81608506
     atom   25 type  1   force =    -2.57622186   -0.75154600    2.46529817
     atom   26 type  1   force =     1.96817052    0.71852636    4.05966966
     atom   27 type  1   force =    -1.73877218    0.26618910   -1.37639071
     atom   28 type  1   force =    -4.01550744    3.93618366    0.84861082
     atom   29 type  1   force =     0.26220343    1.52835355   -0.29460476
     atom   30 type  1   force =     1.50863197   -1.46676700   -3.69520044
     atom   31 type  1   force =    -2.78607375   -0.26605473   -2.62905499
     atom   32 type  1   force =    -1.31037012   -1.56067438    2.05734457
     atom   33 type  1   force =     2.19446441   -3.11707878   -1.46209268
     atom   34 type  1   force =     4.61221085   -1.73094455    2.60915053
     atom   35 type  1   force =    -0.73156935    3.23017504    0.94709594
     atom   36 type  1   force =     3.67565100    1.73503021    3.42577901
     atom   37 type  1   force =     2.29692157   -3.07399479    1.64086452
     atom   38 type  1   force =     0.31506695    0.96229005    2.38363450
     atom   39 type  1   force =    -0.37846450    0.48672739   -2.60916607
     atom   40 type  1   force =    -4.27737839    0.44784079   -3.48916412
     atom   41 type  1   force =     1.10362180    1.40395953   -0.42059615
     atom   42 type  1   force =    -0.50872707   -3.53801843   -1.71790849
     atom   43 type  1   force =     0.01827939    1.84635178   -2.46899656
     atom   44 type  1   force =    -2.65042474   -1.17525980    0.22810671
     atom   45 type  2   force =     4.33826201  -12.66782689   -5.17539006
     atom   46 type  2   force =    -8.54743248   -0.93554209   11.93327715
     atom   47 type  2   force =    -7.06364650  -11.40447090    5.81660063
     atom   48 type  2   force =     1.05485988   13.65729425    7.84897855
     atom   49 type  2   force =     5.38476482   -2.14374911  -14.48890949
     atom   50 type  2   force =     1.33031177    9.10256530  -10.52479363
     atom   51 type  2   force =   -14.33916954   -2.54628017    3.55285772
     atom   52 type  2   force =    -4.00295892    6.07404771   -6.76065824
     atom   53 type  2   force =     5.38767168   -0.53958276   -4.67366426
     atom   54 type  2   force =    11.42096366    4.99997965    0.43679904
     atom   55 type  2   force =     2.05939358    8.73118354    1.65999961
     atom   56 type  2   force =    10.56166718    8.89586531   -6.00708863
     atom   57 type  2   force =     3.74619736   -5.63988993   12.10026813
     atom   58 type  2   force =    -9.37414449   10.28400407    4.76771008
     atom   59 type  2   force =    -4.57578890    1.10150826  -14.69278987
     atom   60 type  2   force =    -6.08841184  -12.52096515   -4.97437680
     atom   61 type  2   force =    10.62909846   -7.99471284    8.27936389
     atom   62 type  2   force =     8.21646731    2.85286322   12.97513656
     atom   63 type  2   force =    -1.66130936   -7.02578639    7.91114565
     atom   64 type  2   force =   -13.70549559   -3.22017505   -7.00147519
     atom   65 type  2   force =    13.75171741   -9.00452876   -3.65947297
     atom   66 type  2   force =   -11.65431330    8.27610006   -0.72813955
     The core correction contribution to forces
     atom    1 type  1   force =     0.00000000    0.00000000    0.00000000
     atom    2 type  1   force =     0.00000000    0.00000000    0.00000000
     atom    3 type  1   force =     0.00000000    0.00000000    0.00000000
     atom    4 type  1   force =     0.00000000    0.00000000    0.00000000
     atom    5 type  1   force =     0.00000000    0.00000000    0.00000000
     atom    6 type  1   force =     0.00000000    0.00000000    0.00000000
     atom    7 type  1   force =     0.00000000    0.00000000    0.00000000
     atom    8 type  1   force =     0.00000000    0.00000000    0.00000000
     atom    9 type  1   force =     0.00000000    0.00000000    0.00000000
     atom   10 type  1   force =     0.00000000    0.00000000    0.00000000
     atom   11 type  1   force =     0.00000000    0.00000000    0.00000000
     atom   12 type  1   force =     0.00000000    0.00000000    0.00000000
     atom   13 type  1   force =     0.00000000    0.00000000    0.00000000
     atom   14 type  1   force =     0.00000000    0.00000000    0.00000000
     atom   15 type  1   force =     0.00000000    0.00000000    0.00000000
     atom   16 type  1   force =     0.00000000    0.00000000    0.00000000
     atom   17 type  1   force =     0.00000000    0.00000000    0.00000000
     atom   18 type  1   force =     0.00000000    0.00000000    0.00000000
     atom   19 type  1   force =     0.00000000    0.00000000    0.00000000
     atom   20 type  1   force =     0.00000000    0.00000000    0.00000000
     atom   21 type  1   force =     0.00000000    0.00000000    0.00000000
     atom   22 type  1   force =     0.00000000    0.00000000    0.00000000
     atom   23 type  1   force =     0.00000000    0.00000000    0.00000000
     atom   24 type  1   force =     0.00000000    0.00000000    0.00000000
     atom   25 type  1   force =     0.00000000    0.00000000    0.00000000
     atom   26 type  1   force =     0.00000000    0.00000000    0.00000000
     atom   27 type  1   force =     0.00000000    0.00000000    0.00000000
     atom   28 type  1   force =     0.00000000    0.00000000    0.00000000
     atom   29 type  1   force =     0.00000000    0.00000000    0.00000000
     atom   30 type  1   force =     0.00000000    0.00000000    0.00000000
     atom   31 type  1   force =     0.00000000    0.00000000    0.00000000
     atom   32 type  1   force =     0.00000000    0.00000000    0.00000000
     atom   33 type  1   force =     0.00000000    0.00000000    0.00000000
     atom   34 type  1   force =     0.00000000    0.00000000    0.00000000
     atom   35 type  1   force =     0.00000000    0.00000000    0.00000000
     atom   36 type  1   force =     0.00000000    0.00000000    0.00000000
     atom   37 type  1   force =     0.00000000    0.00000000    0.00000000
     atom   38 type  1   force =     0.00000000    0.00000000    0.00000000
     atom   39 type  1   force =     0.00000000    0.00000000    0.00000000
     atom   40 type  1   force =     0.00000000    0.00000000    0.00000000
     atom   41 type  1   force =     0.00000000    0.00000000    0.00000000
     atom   42 type  1   force =     0.00000000    0.00000000    0.00000000
     atom   43 type  1   force =     0.00000000    0.00000000    0.00000000
     atom   44 type  1   force =     0.00000000    0.00000000    0.00000000
     atom   45 type  2   force =    -0.01600042   -0.01136596   -0.00964420
     atom   46 type  2   force =    -0.01738421    0.00686195    0.00401261
     atom   47 type  2   force =     0.01258947   -0.00802618    0.01068631
     atom   48 type  2   force =    -0.00023021    0.00574132   -0.01981391
     atom   49 type  2   force =     0.00888940   -0.00480297    0.02052043
     atom   50 type  2   force =     0.01168860    0.01752497   -0.00029237
     atom   51 type  2   force =     0.01233088   -0.01163296   -0.01223018
     atom   52 type  2   force =     0.01852355    0.00791372    0.00018387
     atom   53 type  2   force =     0.00534019    0.00456327    0.01778972
     atom   54 type  2   force =     0.00127892    0.00192585    0.01792259
     atom   55 type  2   force =    -0.01337328   -0.00985409    0.01029997
     atom   56 type  2   force =     0.01336302   -0.00682105    0.01180593
     atom   57 type  2   force =    -0.00815870    0.01325062    0.01137600
     atom   58 type  2   force =    -0.01324694    0.00580931   -0.00789630
     atom   59 type  2   force =     0.01655485   -0.00254215    0.00492085
     atom   60 type  2   force =    -0.01009862    0.01471986    0.00684424
     atom   61 type  2   force =     0.01742766   -0.01179890   -0.00422641
     atom   62 type  2   force =     0.00417618    0.01929661    0.00276748
     atom   63 type  2   force =     0.01479904    0.00360408    0.00773287
     atom   64 type  2   force =    -0.00232013    0.00914539   -0.01765771
     atom   65 type  2   force =    -0.01848099    0.00233910   -0.00309209
     atom   66 type  2   force =     0.00733149   -0.00962823   -0.00948691
     The Hubbard contrib.    to forces
     atom    1 type  1   force =     0.00000000    0.00000000    0.00000000
     atom    2 type  1   force =     0.00000000    0.00000000    0.00000000
     atom    3 type  1   force =     0.00000000    0.00000000    0.00000000
     atom    4 type  1   force =     0.00000000    0.00000000    0.00000000
     atom    5 type  1   force =     0.00000000    0.00000000    0.00000000
     atom    6 type  1   force =     0.00000000    0.00000000    0.00000000
     atom    7 type  1   force =     0.00000000    0.00000000    0.00000000
     atom    8 type  1   force =     0.00000000    0.00000000    0.00000000
     atom    9 type  1   force =     0.00000000    0.00000000    0.00000000
     atom   10 type  1   force =     0.00000000    0.00000000    0.00000000
     atom   11 type  1   force =     0.00000000    0.00000000    0.00000000
     atom   12 type  1   force =     0.00000000    0.00000000    0.00000000
     atom   13 type  1   force =     0.00000000    0.00000000    0.00000000
     atom   14 type  1   force =     0.00000000    0.00000000    0.00000000
     atom   15 type  1   force =     0.00000000    0.00000000    0.00000000
     atom   16 type  1   force =     0.00000000    0.00000000    0.00000000
     atom   17 type  1   force =     0.00000000    0.00000000    0.00000000
     atom   18 type  1   force =     0.00000000    0.00000000    0.00000000
     atom   19 type  1   force =     0.00000000    0.00000000    0.00000000
     atom   20 type  1   force =     0.00000000    0.00000000    0.00000000
     atom   21 type  1   force =     0.00000000    0.00000000    0.00000000
     atom   22 type  1   force =     0.00000000    0.00000000    0.00000000
     atom   23 type  1   force =     0.00000000    0.00000000    0.00000000
     atom   24 type  1   force =     0.00000000    0.00000000    0.00000000
     atom   25 type  1   force =     0.00000000    0.00000000    0.00000000
     atom   26 type  1   force =     0.00000000    0.00000000    0.00000000
     atom   27 type  1   force =     0.00000000    0.00000000    0.00000000
     atom   28 type  1   force =     0.00000000    0.00000000    0.00000000
     atom   29 type  1   force =     0.00000000    0.00000000    0.00000000
     atom   30 type  1   force =     0.00000000    0.00000000    0.00000000
     atom   31 type  1   force =     0.00000000    0.00000000    0.00000000
     atom   32 type  1   force =     0.00000000    0.00000000    0.00000000
     atom   33 type  1   force =     0.00000000    0.00000000    0.00000000
     atom   34 type  1   force =     0.00000000    0.00000000    0.00000000
     atom   35 type  1   force =     0.00000000    0.00000000    0.00000000
     atom   36 type  1   force =     0.00000000    0.00000000    0.00000000
     atom   37 type  1   force =     0.00000000    0.00000000    0.00000000
     atom   38 type  1   force =     0.00000000    0.00000000    0.00000000
     atom   39 type  1   force =     0.00000000    0.00000000    0.00000000
     atom   40 type  1   force =     0.00000000    0.00000000    0.00000000
     atom   41 type  1   force =     0.00000000    0.00000000    0.00000000
     atom   42 type  1   force =     0.00000000    0.00000000    0.00000000
     atom   43 type  1   force =     0.00000000    0.00000000    0.00000000
     atom   44 type  1   force =     0.00000000    0.00000000    0.00000000
     atom   45 type  2   force =     0.00000000    0.00000000    0.00000000
     atom   46 type  2   force =     0.00000000    0.00000000    0.00000000
     atom   47 type  2   force =     0.00000000    0.00000000    0.00000000
     atom   48 type  2   force =     0.00000000    0.00000000    0.00000000
     atom   49 type  2   force =     0.00000000    0.00000000    0.00000000
     atom   50 type  2   force =     0.00000000    0.00000000    0.00000000
     atom   51 type  2   force =     0.00000000    0.00000000    0.00000000
     atom   52 type  2   force =     0.00000000    0.00000000    0.00000000
     atom   53 type  2   force =     0.00000000    0.00000000    0.00000000
     atom   54 type  2   force =     0.00000000    0.00000000    0.00000000
     atom   55 type  2   force =     0.00000000    0.00000000    0.00000000
     atom   56 type  2   force =     0.00000000    0.00000000    0.00000000
     atom   57 type  2   force =     0.00000000    0.00000000    0.00000000
     atom   58 type  2   force =     0.00000000    0.00000000    0.00000000
     atom   59 type  2   force =     0.00000000    0.00000000    0.00000000
     atom   60 type  2   force =     0.00000000    0.00000000    0.00000000
     atom   61 type  2   force =     0.00000000    0.00000000    0.00000000
     atom   62 type  2   force =     0.00000000    0.00000000    0.00000000
     atom   63 type  2   force =     0.00000000    0.00000000    0.00000000
     atom   64 type  2   force =     0.00000000    0.00000000    0.00000000
     atom   65 type  2   force =     0.00000000    0.00000000    0.00000000
     atom   66 type  2   force =     0.00000000    0.00000000    0.00000000
     The SCF correction term to forces
     atom    1 type  1   force =    -0.00000068   -0.00000330   -0.00000311
     atom    2 type  1   force =     0.00000039   -0.00000128   -0.00000095
     atom    3 type  1   force =     0.00000156   -0.00000318    0.00000375
     atom    4 type  1   force =     0.00000218    0.00000217    0.00000078
     atom    5 type  1   force =     0.00001318   -0.00000092    0.00000831
     atom    6 type  1   force =     0.00000538   -0.00002107    0.00000971
     atom    7 type  1   force =    -0.00000048    0.00001258   -0.00001109
     atom    8 type  1   force =    -0.00000208    0.00000404   -0.00000101
     atom    9 type  1   force =     0.00001506   -0.00005538    0.00004827
     atom   10 type  1   force =     0.00003206    0.00002369    0.00005937
     atom   11 type  1   force =     0.00001175    0.00003167   -0.00000487
     atom   12 type  1   force =     0.00003166    0.00001491    0.00000947
     atom   13 type  1   force =     0.00000054   -0.00001182   -0.00002702
     atom   14 type  1   force =     0.00001139   -0.00001080   -0.00000858
     atom   15 type  1   force =     0.00003143    0.00000516    0.00001721
     atom   16 type  1   force =     0.00001665    0.00001642   -0.00000005
     atom   17 type  1   force =     0.00000987   -0.00001317    0.00001731
     atom   18 type  1   force =     0.00001434    0.00001603    0.00001574
     atom   19 type  1   force =     0.00001000   -0.00001146   -0.00000357
     atom   20 type  1   force =     0.00000333   -0.00000518    0.00000610
     atom   21 type  1   force =    -0.00003034   -0.00000327    0.00000759
     atom   22 type  1   force =    -0.00000160   -0.00002248    0.00003510
     atom   23 type  1   force =     0.00000559    0.00000390   -0.00001061
     atom   24 type  1   force =    -0.00000566   -0.00000026   -0.00000062
     atom   25 type  1   force =    -0.00001198    0.00001072    0.00000834
     atom   26 type  1   force =    -0.00000303    0.00001752    0.00000985
     atom   27 type  1   force =     0.00000674    0.00000852    0.00000896
     atom   28 type  1   force =    -0.00000451    0.00000530    0.00000017
     atom   29 type  1   force =     0.00001846   -0.00000094    0.00001090
     atom   30 type  1   force =     0.00001565   -0.00001082   -0.00000600
     atom   31 type  1   force =    -0.00001217    0.00001068    0.00000353
     atom   32 type  1   force =    -0.00000632    0.00000549   -0.00000232
     atom   33 type  1   force =    -0.00000638    0.00000051    0.00001005
     atom   34 type  1   force =    -0.00000255   -0.00000077   -0.00000113
     atom   35 type  1   force =    -0.00000895   -0.00000516   -0.00000400
     atom   36 type  1   force =     0.00000292    0.00000243    0.00000348
     atom   37 type  1   force =     0.00003414   -0.00001418   -0.00000077
     atom   38 type  1   force =     0.00001433    0.00001985    0.00001425
     atom   39 type  1   force =    -0.00003104   -0.00001991    0.00001834
     atom   40 type  1   force =     0.00000852   -0.00000677    0.00001523
     atom   41 type  1   force =    -0.00001507    0.00001028    0.00000349
     atom   42 type  1   force =    -0.00002489   -0.00000803   -0.00001143
     atom   43 type  1   force =     0.00001121   -0.00000296   -0.00000886
     atom   44 type  1   force =     0.00000661   -0.00002015   -0.00001237
     atom   45 type  2   force =    -0.00002906   -0.00004942   -0.00005574
     atom   46 type  2   force =     0.00001310   -0.00002875    0.00003832
     atom   47 type  2   force =     0.00007440   -0.00006871    0.00009184
     atom   48 type  2   force =    -0.00001163    0.00002684   -0.00012177
     atom   49 type  2   force =     0.00012608   -0.00005410    0.00029559
     atom   50 type  2   force =     0.00014308    0.00022446    0.00000508
     atom   51 type  2   force =     0.00007815   -0.00008230   -0.00010371
     atom   52 type  2   force =     0.00022057    0.00008132    0.00007604
     atom   53 type  2   force =     0.00007370    0.00003599    0.00014370
     atom   54 type  2   force =     0.00002788   -0.00005048    0.00012176
     atom   55 type  2   force =    -0.00008501   -0.00008493    0.00014637
     atom   56 type  2   force =     0.00001628   -0.00001798    0.00001042
     atom   57 type  2   force =    -0.00005425    0.00011095    0.00011482
     atom   58 type  2   force =    -0.00006939    0.00004102   -0.00006724
     atom   59 type  2   force =     0.00017847   -0.00001851    0.00000550
     atom   60 type  2   force =    -0.00009851    0.00009379    0.00008960
     atom   61 type  2   force =    -0.00000614   -0.00002061   -0.00003026
     atom   62 type  2   force =    -0.00008571    0.00001621   -0.00003857
     atom   63 type  2   force =     0.00019697   -0.00002194    0.00004834
     atom   64 type  2   force =    -0.00005530   -0.00002124   -0.00000325
     atom   65 type  2   force =    -0.00020892    0.00002040   -0.00005354
     atom   66 type  2   force =     0.00011125   -0.00012741   -0.00015388

     Total force =     0.512720     Total SCF correction =     0.000819


     Computing stress (Cartesian axis) and pressure


     negative rho (up, down):  4.985E-01 0.000E+00
          total   stress  (Ry/bohr**3)                   (kbar)     P=       -2.89
  -0.00002048   0.00000024  -0.00000020           -3.01        0.04       -0.03
   0.00000024  -0.00001860   0.00000032            0.04       -2.74        0.05
  -0.00000020   0.00000032  -0.00001983           -0.03        0.05       -2.92


     init_run     :      8.13s CPU      8.58s WALL (       1 calls)
     electrons    :     84.90s CPU     90.72s WALL (       1 calls)
     forces       :      5.63s CPU      5.96s WALL (       1 calls)
     stress       :     16.80s CPU     17.19s WALL (       1 calls)

     Called by init_run:
     wfcinit      :      3.10s CPU      3.29s WALL (       1 calls)
     potinit      :      1.34s CPU      1.41s WALL (       1 calls)
     hinit0       :      0.98s CPU      1.05s WALL (       1 calls)

     Called by electrons:
     c_bands      :     56.68s CPU     59.77s WALL (      10 calls)
     sum_band     :     16.15s CPU     17.44s WALL (      10 calls)
     v_of_rho     :      7.02s CPU      7.58s WALL (      11 calls)
     newd         :      3.59s CPU      4.45s WALL (      11 calls)
     PAW_pot      :      1.03s CPU      1.03s WALL (      11 calls)
     mix_rho      :      1.24s CPU      1.34s WALL (      10 calls)

     Called by c_bands:
     init_us_2    :      0.82s CPU      0.85s WALL (      21 calls)
     init_us_2:cp :      0.82s CPU      0.85s WALL (      21 calls)
     regterg      :     55.70s CPU     58.79s WALL (      10 calls)

     Called by *egterg:
     rdiaghg      :      0.21s CPU      0.21s WALL (      32 calls)
     h_psi        :     50.15s CPU     52.82s WALL (      33 calls)
     s_psi        :      1.39s CPU      1.39s WALL (      33 calls)
     g_psi        :      0.16s CPU      0.16s WALL (      22 calls)

     Called by h_psi:
     h_psi:calbec :      1.24s CPU      1.24s WALL (      33 calls)
     vloc_psi     :     47.08s CPU     49.73s WALL (      33 calls)
     add_vuspsi   :      1.37s CPU      1.37s WALL (      33 calls)

     General routines
     calbec       :      1.85s CPU      1.86s WALL (      48 calls)
     fft          :      4.20s CPU      4.79s WALL (     119 calls)
     ffts         :      0.29s CPU      0.32s WALL (      10 calls)
     fftw         :     40.38s CPU     43.37s WALL (    2896 calls)

     Parallel routines

     PWSCF        :   1m55.63s CPU   2m 2.65s WALL


   This run was terminated on:   2:42:23  27Mar2024            

=------------------------------------------------------------------------------=
   JOB DONE.
=------------------------------------------------------------------------------=
