
     Program PWSCF v.7.2 starts on 27Mar2024 at 23: 9: 4 

     This program is part of the open-source Quantum ESPRESSO suite
     for quantum simulation of materials; please cite
         "P. Giannozzi et al., J. Phys.:Condens. Matter 21 395502 (2009);
         "P. Giannozzi et al., J. Phys.:Condens. Matter 29 465901 (2017);
         "P. Giannozzi et al., J. Chem. Phys. 152 154105 (2020);
          URL http://www.quantum-espresso.org", 
     in publications or presentations arising from this work. More details at
     http://www.quantum-espresso.org/quote

     Parallel version (MPI), running on    32 processors

     MPI processes distributed on     1 nodes
     175102 MiB available memory on the printing compute node when the environment starts

     Reading input from pw-wt-418.in
Warning: card &CELL ignored
Warning: card / ignored

     Current dimensions of program PWSCF are:
     Max number of different atomic species (ntypx) = 10
     Max number of k-points (npk) =  40000
     Max angular momentum in pseudopotentials (lmaxx) =  4
     file O.pbe-n-kjpaw_psl.0.1.UPF: wavefunction(s)  2P renormalized

     IMPORTANT: XC functional enforced from input :
     Exchange-correlation= PBE
                           (   1   4   3   4   0   0   0)
     Any further DFT definition will be discarded
     Please, verify this is what you really want


     gamma-point specific algorithms are used

     R & G space division:  proc/nbgrp/npool/nimage =      32
     Subspace diagonalization in iterative solution of the eigenvalue problem:
     a serial algorithm will be used


     Parallelization info
     --------------------
     sticks:   dense  smooth     PW     G-vecs:    dense   smooth      PW
     Min        1707    1707    426               301015   301015   37634
     Max        1710    1710    428               301034   301034   37648
     Sum       54693   54693  13673              9632757  9632757 1204469

     Using Slab Decomposition



     bravais-lattice index     =            0
     lattice parameter (alat)  =      75.7119  a.u.
     unit-cell volume          =  434002.3113 (a.u.)^3
     number of atoms/cell      =           66
     number of atomic types    =            2
     number of electrons       =       176.00
     number of Kohn-Sham states=           88
     kinetic-energy cutoff     =      30.0000  Ry
     charge density cutoff     =     120.0000  Ry
     scf convergence threshold =      1.0E-06
     mixing beta               =       0.5000
     number of iterations used =            8  plain     mixing
     Exchange-correlation= PBE
                           (   1   4   3   4   0   0   0)

     celldm(1)=  75.711877  celldm(2)=   0.000000  celldm(3)=   0.000000
     celldm(4)=   0.000000  celldm(5)=   0.000000  celldm(6)=   0.000000

     crystal axes: (cart. coord. in units of alat)
               a(1) = (   1.000000   0.000000   0.000000 )  
               a(2) = (   0.000000   1.000000   0.000000 )  
               a(3) = (   0.000000   0.000000   1.000000 )  

     reciprocal axes: (cart. coord. in units 2 pi/alat)
               b(1) = (  1.000000  0.000000  0.000000 )  
               b(2) = (  0.000000  1.000000  0.000000 )  
               b(3) = (  0.000000  0.000000  1.000000 )  


     PseudoPot. # 1 for H  read from file:
     /share/pfaendtnergroup/rverma7/QE_PP/H.pbe-rrkjus_psl.1.0.0.UPF
     MD5 check sum: f52b6d4d1c606e5624b1dc7b2218f220
     Pseudo is Ultrasoft, Zval =  1.0
     Generated using "atomic" code by A. Dal Corso  v.5.1
     Using radial grid of  929 points,  2 beta functions with: 
                l(1) =   0
                l(2) =   0
     Q(r) pseudized with 0 coefficients 


     PseudoPot. # 2 for O  read from file:
     /share/pfaendtnergroup/rverma7/QE_PP/O.pbe-n-kjpaw_psl.0.1.UPF
     MD5 check sum: 0234752ac141de4415c5fc33072bef88
     Pseudo is Projector augmented-wave + core cor, Zval =  6.0
     Generated using "atomic" code by A. Dal Corso  v.5.0.99 svn rev. 10869
     Shape of augmentation charge: BESSEL
     Using radial grid of 1095 points,  4 beta functions with: 
                l(1) =   0
                l(2) =   0
                l(3) =   1
                l(4) =   1
     Q(r) pseudized with 0 coefficients 


     atomic species   valence    mass     pseudopotential
        H              1.00     1.00800     H ( 1.00)
        O              6.00    15.99900     O ( 1.00)

     No symmetry found



   Cartesian axes

     site n.     atom                  positions (alat units)
         1           H   tau(   1) = (   0.3536254   0.2636466   0.3485336  )
         2           H   tau(   2) = (   0.3444902   0.2698365   0.3107950  )
         3           H   tau(   3) = (   0.2932235   0.2003494   0.4343941  )
         4           H   tau(   4) = (   0.2914015   0.2286035   0.4596780  )
         5           H   tau(   5) = (   0.3044303   0.2998627   0.2913765  )
         6           H   tau(   6) = (   0.3207288   0.3025833   0.2553101  )
         7           H   tau(   7) = (   0.2686634   0.3174841   0.5276675  )
         8           H   tau(   8) = (   0.2436041   0.2966929   0.5003869  )
         9           H   tau(   9) = (   0.2450268   0.2569075   0.4075877  )
        10           H   tau(  10) = (   0.2046674   0.2515912   0.4060901  )
        11           H   tau(  11) = (   0.2275802   0.2807438   0.3162860  )
        12           H   tau(  12) = (   0.2102583   0.3182578   0.3099463  )
        13           H   tau(  13) = (   0.2954948   0.2260327   0.3849994  )
        14           H   tau(  14) = (   0.3010608   0.2656184   0.3816299  )
        15           H   tau(  15) = (   0.2155497   0.2754274   0.4619743  )
        16           H   tau(  16) = (   0.1835268   0.2916011   0.4757020  )
        17           H   tau(  17) = (   0.2837389   0.1339324   0.3322351  )
        18           H   tau(  18) = (   0.2987395   0.1711968   0.3296643  )
        19           H   tau(  19) = (   0.2388618   0.1976289   0.4384126  )
        20           H   tau(  20) = (   0.2013478   0.1770623   0.4547361  )
        21           H   tau(  21) = (   0.2584800   0.2450518   0.3372520  )
        22           H   tau(  22) = (   0.2296019   0.2186697   0.3382254  )
        23           H   tau(  23) = (   0.3018595   0.3389991   0.4378136  )
        24           H   tau(  24) = (   0.2795457   0.3197804   0.4069637  )
        25           H   tau(  25) = (   0.3550231   0.2149507   0.4269562  )
        26           H   tau(  26) = (   0.3419693   0.2425558   0.4543367  )
        27           H   tau(  27) = (   0.4533633   0.1896918   0.3839760  )
        28           H   tau(  28) = (   0.4269562   0.2126544   0.4039186  )
        29           H   tau(  29) = (   0.2455011   0.3214526   0.3552976  )
        30           H   tau(  30) = (   0.2345688   0.3035817   0.3900661  )
        31           H   tau(  31) = (   0.3920629   0.1982029   0.3731436  )
        32           H   tau(  32) = (   0.3687258   0.2174466   0.3511294  )
        33           H   tau(  33) = (   0.3031324   0.2093847   0.2848621  )
        34           H   tau(  34) = (   0.3361787   0.2118557   0.3096967  )
        35           H   tau(  35) = (   0.3507550   0.2667415   0.4086360  )
        36           H   tau(  36) = (   0.3313366   0.3000374   0.4010233  )
        37           H   tau(  37) = (   0.4073381   0.2392612   0.4467740  )
        38           H   tau(  38) = (   0.4427306   0.2628479   0.4386871  )
        39           H   tau(  39) = (   0.3027580   0.1695744   0.3880444  )
        40           H   tau(  40) = (   0.3404717   0.1876700   0.3927368  )
        41           H   tau(  41) = (   0.3031324   0.2838388   0.4485960  )
        42           H   tau(  42) = (   0.2952203   0.2711843   0.4857606  )
        43           H   tau(  43) = (   0.2189692   0.1828279   0.3905653  )
        44           H   tau(  44) = (   0.2501186   0.1820542   0.3650318  )
        45           O   tau(  45) = (   0.3546487   0.2518657   0.3263197  )
        46           O   tau(  46) = (   0.2752028   0.2106078   0.4500686  )
        47           O   tau(  47) = (   0.3259953   0.2951703   0.2786971  )
        48           O   tau(  48) = (   0.2677649   0.3006614   0.5092974  )
        49           O   tau(  49) = (   0.2225384   0.2659179   0.4184450  )
        50           O   tau(  50) = (   0.2316735   0.3057032   0.3160364  )
        51           O   tau(  51) = (   0.2840634   0.2476476   0.3781605  )
        52           O   tau(  52) = (   0.2077374   0.2893798   0.4799201  )
        53           O   tau(  53) = (   0.2904780   0.1540996   0.3459878  )
        54           O   tau(  54) = (   0.2160988   0.1833021   0.4346437  )
        55           O   tau(  55) = (   0.2370897   0.2400349   0.3239735  )
        56           O   tau(  56) = (   0.2993635   0.3174841   0.4250593  )
        57           O   tau(  57) = (   0.3614127   0.2356920   0.4392362  )
        58           O   tau(  58) = (   0.4281792   0.1929115   0.3860227  )
        59           O   tau(  59) = (   0.2500187   0.3215774   0.3814801  )
        60           O   tau(  60) = (   0.3673031   0.2018470   0.3701235  )
        61           O   tau(  61) = (   0.3191564   0.1962062   0.2991389  )
        62           O   tau(  62) = (   0.3433171   0.2817921   0.3877200  )
        63           O   tau(  63) = (   0.4315238   0.2395607   0.4369649  )
        64           O   tau(  64) = (   0.3155622   0.1867715   0.4031199  )
        65           O   tau(  65) = (   0.3088232   0.2648696   0.4651691  )
        66           O   tau(  66) = (   0.2276301   0.1926619   0.3680519  )

     number of k points=     1
                       cart. coord. in units 2pi/alat
        k(    1) = (   0.0000000   0.0000000   0.0000000), wk =   2.0000000

     Dense  grid:  4816379 G-vectors     FFT dimensions: ( 270, 270, 270)

     Estimated max dynamical RAM per process >     612.29 MB

     Estimated total dynamical RAM >      19.13 GB

     Check: negative core charge=   -0.000006

     Initial potential from superposition of free atoms

     starting charge     175.9995, renormalised to     176.0000

     negative rho (up, down):  3.727E-01 0.000E+00
     Starting wfcs are  132 randomized atomic wfcs
     Checking if some PAW data can be deallocated... 

     total cpu time spent up to now is        8.1 secs

     Self-consistent Calculation

     iteration #  1     ecut=    30.00 Ry     beta= 0.50
     Davidson diagonalization with overlap
     ethr =  1.00E-02,  avg # of iterations =  2.0

     negative rho (up, down):  4.373E-01 0.000E+00

     total cpu time spent up to now is       16.1 secs

     total energy              =    -965.81265873 Ry
     estimated scf accuracy    <       6.73261685 Ry

     iteration #  2     ecut=    30.00 Ry     beta= 0.50
     Davidson diagonalization with overlap
     ethr =  3.83E-03,  avg # of iterations =  2.0

     negative rho (up, down):  4.558E-01 0.000E+00

     total cpu time spent up to now is       26.2 secs

     total energy              =    -967.71313120 Ry
     estimated scf accuracy    <       0.99613775 Ry

     iteration #  3     ecut=    30.00 Ry     beta= 0.50
     Davidson diagonalization with overlap
     ethr =  5.66E-04,  avg # of iterations =  2.0

     negative rho (up, down):  4.972E-01 0.000E+00

     total cpu time spent up to now is       34.5 secs

     total energy              =    -967.76654136 Ry
     estimated scf accuracy    <       0.12798853 Ry

     iteration #  4     ecut=    30.00 Ry     beta= 0.50
     Davidson diagonalization with overlap
     ethr =  7.27E-05,  avg # of iterations =  3.0

     negative rho (up, down):  4.980E-01 0.000E+00

     total cpu time spent up to now is       43.2 secs

     total energy              =    -967.78984642 Ry
     estimated scf accuracy    <       0.03984614 Ry

     iteration #  5     ecut=    30.00 Ry     beta= 0.50
     Davidson diagonalization with overlap
     ethr =  2.26E-05,  avg # of iterations =  2.0

     negative rho (up, down):  4.970E-01 0.000E+00

     total cpu time spent up to now is       50.1 secs

     total energy              =    -967.79018717 Ry
     estimated scf accuracy    <       0.00798499 Ry

     iteration #  6     ecut=    30.00 Ry     beta= 0.50
     Davidson diagonalization with overlap
     ethr =  4.54E-06,  avg # of iterations =  2.0

     negative rho (up, down):  4.965E-01 0.000E+00

     total cpu time spent up to now is       57.3 secs

     total energy              =    -967.79056161 Ry
     estimated scf accuracy    <       0.00149843 Ry

     iteration #  7     ecut=    30.00 Ry     beta= 0.50
     Davidson diagonalization with overlap
     ethr =  8.51E-07,  avg # of iterations =  2.0

     negative rho (up, down):  4.962E-01 0.000E+00

     total cpu time spent up to now is       64.8 secs

     total energy              =    -967.79066140 Ry
     estimated scf accuracy    <       0.00026488 Ry

     iteration #  8     ecut=    30.00 Ry     beta= 0.50
     Davidson diagonalization with overlap
     ethr =  1.51E-07,  avg # of iterations =  2.0

     negative rho (up, down):  4.961E-01 0.000E+00

     total cpu time spent up to now is       72.9 secs

     total energy              =    -967.79072260 Ry
     estimated scf accuracy    <       0.00001258 Ry

     iteration #  9     ecut=    30.00 Ry     beta= 0.50
     Davidson diagonalization with overlap
     ethr =  7.15E-09,  avg # of iterations =  3.0

     negative rho (up, down):  4.961E-01 0.000E+00

     total cpu time spent up to now is       81.3 secs

     total energy              =    -967.79072351 Ry
     estimated scf accuracy    <       0.00000845 Ry

     iteration # 10     ecut=    30.00 Ry     beta= 0.50
     Davidson diagonalization with overlap
     ethr =  4.80E-09,  avg # of iterations =  2.0

     negative rho (up, down):  4.962E-01 0.000E+00

     total cpu time spent up to now is       88.3 secs

     End of self-consistent calculation

          k = 0.0000 0.0000 0.0000 (602235 PWs)   bands (ev):

   -25.7786 -25.6515 -25.5295 -25.4190 -25.2919 -25.0853 -25.0567 -24.9850
   -24.9475 -24.8288 -24.7977 -24.7216 -24.5607 -24.5436 -24.5296 -24.5150
   -24.4556 -24.2881 -24.1924 -23.8046 -23.6318 -23.4281 -13.6419 -13.5510
   -13.4847 -13.4490 -13.2467 -13.1255 -13.1141 -12.9794 -12.8916 -12.8034
   -12.7596 -12.6887 -12.6350 -12.5548 -12.4563 -12.4085 -12.1278 -12.0891
   -11.9492 -11.7311 -11.4436 -11.2778 -11.0636 -10.7625 -10.4672 -10.3780
   -10.3497 -10.0984  -9.9267  -9.7991  -9.7044  -9.5879  -9.4296  -9.2922
    -9.1540  -9.0272  -9.0193  -8.7091  -8.6140  -8.5312  -8.3545  -8.2444
    -7.9973  -7.9048  -7.7645  -7.6613  -7.5674  -7.4850  -7.4109  -7.3898
    -7.3460  -7.2887  -7.2610  -7.2017  -7.1602  -7.1325  -7.0694  -7.0395
    -6.9587  -6.9347  -6.9269  -6.7857  -6.7183  -6.4078  -6.2823  -6.0394

     highest occupied level (ev):    -6.0394

!    total energy              =    -967.79072376 Ry
     estimated scf accuracy    <       0.00000085 Ry

     The total energy is the sum of the following terms:
     one-electron contribution =   -6049.42181301 Ry
     hartree contribution      =    3060.33154732 Ry
     xc contribution           =    -193.45883610 Ry
     ewald contribution        =    2424.07145861 Ry
     one-center paw contrib.   =    -209.31308059 Ry

     convergence has been achieved in  10 iterations

     negative rho (up, down):  4.962E-01 0.000E+00

     Forces acting on atoms (cartesian axes, Ry/au):

     atom    1 type  1   force =    -0.00566301   -0.00754784   -0.01026125
     atom    2 type  1   force =     0.03586865   -0.05455966    0.02138848
     atom    3 type  1   force =    -0.05242399   -0.00126751    0.02127258
     atom    4 type  1   force =    -0.06930191   -0.01370447   -0.01866634
     atom    5 type  1   force =     0.04409666   -0.00759089   -0.03395616
     atom    6 type  1   force =     0.01141276   -0.01545866    0.04060820
     atom    7 type  1   force =    -0.01889111   -0.03045126   -0.03296067
     atom    8 type  1   force =     0.04593021    0.03079981    0.03997961
     atom    9 type  1   force =    -0.06122033    0.01455142    0.03126401
     atom   10 type  1   force =     0.06613038    0.04274939    0.04378717
     atom   11 type  1   force =    -0.00768245   -0.00174942    0.00681157
     atom   12 type  1   force =     0.05894505   -0.04949839    0.01467826
     atom   13 type  1   force =    -0.00814760    0.02967285   -0.00379020
     atom   14 type  1   force =     0.00788641   -0.02410178   -0.00653756
     atom   15 type  1   force =     0.01492448   -0.02904717   -0.05428779
     atom   16 type  1   force =     0.02303222    0.00268966    0.01061038
     atom   17 type  1   force =     0.01717976    0.05087631    0.03373536
     atom   18 type  1   force =     0.01038071   -0.00336693   -0.01293549
     atom   19 type  1   force =    -0.07333304   -0.04595325    0.04056622
     atom   20 type  1   force =     0.07421160    0.03504039   -0.05607124
     atom   21 type  1   force =    -0.04117069   -0.00715515   -0.01962766
     atom   22 type  1   force =     0.00380990    0.07235597   -0.03594228
     atom   23 type  1   force =    -0.01360528   -0.04050506   -0.02901515
     atom   24 type  1   force =     0.03261777    0.00940295    0.02883517
     atom   25 type  1   force =     0.00278938    0.02868068    0.02107360
     atom   26 type  1   force =     0.02050332   -0.00652246   -0.01578049
     atom   27 type  1   force =    -0.06845139    0.00486602   -0.00211971
     atom   28 type  1   force =     0.01827649   -0.05230723   -0.04404044
     atom   29 type  1   force =     0.01509623   -0.01618965    0.07201399
     atom   30 type  1   force =     0.01451201    0.01860791   -0.00470600
     atom   31 type  1   force =    -0.00850155   -0.02369818    0.00694455
     atom   32 type  1   force =    -0.03176205    0.00590089   -0.00376097
     atom   33 type  1   force =     0.04091883   -0.01273321    0.03731925
     atom   34 type  1   force =    -0.04319189   -0.00254176   -0.02343514
     atom   35 type  1   force =    -0.00943476    0.02907594   -0.07561965
     atom   36 type  1   force =     0.01516345   -0.01012004   -0.02907839
     atom   37 type  1   force =     0.05917443    0.02323463   -0.03089426
     atom   38 type  1   force =    -0.05941834   -0.07992127   -0.00219119
     atom   39 type  1   force =     0.05073855    0.04506446    0.03949967
     atom   40 type  1   force =    -0.08015051    0.00458274   -0.00195509
     atom   41 type  1   force =     0.00540826   -0.02081144    0.02355416
     atom   42 type  1   force =     0.02581369    0.00585860   -0.02395056
     atom   43 type  1   force =     0.01381604    0.03070560   -0.04012344
     atom   44 type  1   force =    -0.02768430    0.00023240   -0.00094597
     atom   45 type  2   force =    -0.02491074    0.06408221   -0.02079337
     atom   46 type  2   force =     0.08807133   -0.00497174   -0.00906921
     atom   47 type  2   force =    -0.06633497    0.02575111   -0.00084868
     atom   48 type  2   force =    -0.02740086   -0.00205501   -0.00626730
     atom   49 type  2   force =     0.01195498   -0.06644607   -0.09388238
     atom   50 type  2   force =    -0.04564556    0.05757004   -0.01336299
     atom   51 type  2   force =    -0.00844102   -0.01406659    0.00807516
     atom   52 type  2   force =    -0.03671213    0.02507313    0.04279884
     atom   53 type  2   force =    -0.02446907   -0.03773282   -0.01719941
     atom   54 type  2   force =     0.00537545    0.01333887    0.01884928
     atom   55 type  2   force =     0.03741852   -0.04705879    0.05316422
     atom   56 type  2   force =    -0.02543314    0.03938502   -0.01456286
     atom   57 type  2   force =    -0.00835253   -0.00461467    0.00044014
     atom   58 type  2   force =     0.07720683    0.05618728    0.06302606
     atom   59 type  2   force =    -0.03281047   -0.01452084   -0.05624915
     atom   60 type  2   force =     0.04710153    0.00046396   -0.01091918
     atom   61 type  2   force =    -0.00858359    0.01892498   -0.00771949
     atom   62 type  2   force =     0.00875593   -0.01925034    0.10753105
     atom   63 type  2   force =    -0.01451875    0.05075081    0.02488378
     atom   64 type  2   force =     0.01499965   -0.05411813   -0.06695051
     atom   65 type  2   force =    -0.02517361    0.03716691    0.03032524
     atom   66 type  2   force =     0.00929918   -0.05200529    0.04744161
     The non-local contrib.  to forces
     atom    1 type  1   force =     0.00309211   -0.04528290   -0.08732718
     atom    2 type  1   force =     0.03387941   -0.06041155    0.05489934
     atom    3 type  1   force =    -0.05755223    0.03370407    0.05001382
     atom    4 type  1   force =    -0.05019465   -0.05544014   -0.03041278
     atom    5 type  1   force =     0.07951160   -0.01657246   -0.04987566
     atom    6 type  1   force =     0.01811849   -0.02888883    0.09363372
     atom    7 type  1   force =    -0.00739488   -0.06784902   -0.07471797
     atom    8 type  1   force =     0.07681175    0.01518455    0.03113088
     atom    9 type  1   force =    -0.06908771    0.02636802    0.03181185
     atom   10 type  1   force =     0.06084646    0.04764315    0.04041525
     atom   11 type  1   force =     0.01177638    0.09367382   -0.00127906
     atom   12 type  1   force =     0.07579920   -0.04809817    0.02205044
     atom   13 type  1   force =    -0.04022583    0.08177787   -0.02514789
     atom   14 type  1   force =    -0.06680104   -0.07330054   -0.01239776
     atom   15 type  1   force =    -0.04075126    0.06745470    0.08706447
     atom   16 type  1   force =     0.10357135   -0.01086904    0.01629049
     atom   17 type  1   force =     0.02602529    0.07771158    0.05008062
     atom   18 type  1   force =    -0.03375123   -0.06941510    0.06276606
     atom   19 type  1   force =    -0.05736641   -0.03592872   -0.00558809
     atom   20 type  1   force =     0.05396755    0.02379625   -0.06758223
     atom   21 type  1   force =    -0.07600713   -0.01815990   -0.04708151
     atom   22 type  1   force =     0.02183080    0.05878983   -0.03781500
     atom   23 type  1   force =    -0.01146646   -0.08359471   -0.05169635
     atom   24 type  1   force =     0.04952063   -0.00408511    0.04640478
     atom   25 type  1   force =     0.02384519    0.08517633    0.05209466
     atom   26 type  1   force =     0.06704785   -0.02699405   -0.05463860
     atom   27 type  1   force =    -0.09200775    0.01348081    0.00821444
     atom   28 type  1   force =     0.00507692   -0.05640580   -0.05124275
     atom   29 type  1   force =     0.01274432   -0.00109815    0.07681494
     atom   30 type  1   force =     0.05931059    0.06866280   -0.03543224
     atom   31 type  1   force =    -0.09204571    0.01454263   -0.01085405
     atom   32 type  1   force =    -0.00615709   -0.06702505    0.08223303
     atom   33 type  1   force =     0.06418016   -0.04813848    0.05676529
     atom   34 type  1   force =    -0.06508408   -0.05579563   -0.04087526
     atom   35 type  1   force =    -0.02214535    0.04258438   -0.05702937
     atom   36 type  1   force =     0.04235967   -0.06540601   -0.04645619
     atom   37 type  1   force =     0.07963276    0.00508491   -0.03098535
     atom   38 type  1   force =    -0.04134556   -0.07750248   -0.00478653
     atom   39 type  1   force =     0.04186490    0.05519065    0.04780731
     atom   40 type  1   force =    -0.06279860   -0.00163558    0.02532712
     atom   41 type  1   force =     0.01806646   -0.06258028    0.05548946
     atom   42 type  1   force =     0.04986130   -0.02310084   -0.07691298
     atom   43 type  1   force =     0.03003735    0.03101568   -0.07299140
     atom   44 type  1   force =    -0.09008359    0.04198754    0.01452899
     atom   45 type  2   force =    -0.73993471    1.70338752    0.46743125
     atom   46 type  2   force =     1.72265705    0.37256373   -0.43711950
     atom   47 type  2   force =    -1.96766148    0.82220990   -0.77301653
     atom   48 type  2   force =    -1.43421442    0.97882969    0.83410371
     atom   49 type  2   force =     0.12318485   -1.43959376   -1.49493251
     atom   50 type  2   force =    -1.84465211   -0.56963904   -0.27776125
     atom   51 type  2   force =     1.75929952   -0.17746352    0.67534811
     atom   52 type  2   force =    -1.15514806   -0.79686453   -1.43266998
     atom   53 type  2   force =    -0.05701519   -0.29618878   -1.93507113
     atom   54 type  2   force =     0.16922898    0.38411120    1.63208338
     atom   55 type  2   force =     0.87748412   -0.64536982    1.57579921
     atom   56 type  2   force =    -0.73957113    1.53271588    0.01195684
     atom   57 type  2   force =    -1.58363237   -1.01000456    0.04362475
     atom   58 type  2   force =     1.58315484    1.00687225    0.77284823
     atom   59 type  2   force =    -0.97376897   -1.23540589   -0.82763575
     atom   60 type  2   force =     1.36463217    0.74884803   -0.86310777
     atom   61 type  2   force =    -0.15095805    2.04723572   -0.20785578
     atom   62 type  2   force =    -0.40435744    0.20038069    1.88471505
     atom   63 type  2   force =    -0.82864893    1.69458311    0.61558018
     atom   64 type  2   force =     0.40781176   -0.90968231   -1.31620203
     atom   65 type  2   force =    -1.10146587    1.19508885    0.29657672
     atom   66 type  2   force =     1.01871444   -1.22011866    1.02173317
     The ionic contribution  to forces
     atom    1 type  1   force =     1.75034850    2.42342237    0.92655925
     atom    2 type  1   force =     0.37136518    2.65626799   -3.23981542
     atom    3 type  1   force =     1.42818235   -2.85380155    0.55726159
     atom    4 type  1   force =     1.18175342    0.30208645    3.37204338
     atom    5 type  1   force =    -2.48687616    1.99329660   -0.28979799
     atom    6 type  1   force =    -0.28554601    1.90054905   -5.00132962
     atom    7 type  1   force =     0.10420027    3.35790028    4.41699471
     atom    8 type  1   force =    -2.82890777    0.63001049    1.44678914
     atom    9 type  1   force =     0.36946904   -0.47252737   -0.48613713
     atom   10 type  1   force =    -4.80825627   -1.34234535   -1.23119504
     atom   11 type  1   force =    -2.25732371   -1.55866941   -1.95065623
     atom   12 type  1   force =    -4.10233218    2.91676614   -2.15332999
     atom   13 type  1   force =     0.94472139   -2.71107147    0.21992042
     atom   14 type  1   force =     1.67491281    2.95522183   -0.37656497
     atom   15 type  1   force =    -0.83510261   -1.40287101   -0.63064161
     atom   16 type  1   force =    -5.35501866    1.07977747    0.65930744
     atom   17 type  1   force =    -1.22012446   -4.99875333   -2.71121074
     atom   18 type  1   force =     0.67674671   -0.23072972   -3.19336319
     atom   19 type  1   force =    -0.05413876   -0.51537919    1.63026554
     atom   20 type  1   force =    -3.50029864   -2.19295655    3.61408352
     atom   21 type  1   force =     1.32468831    0.68073373   -0.69760788
     atom   22 type  1   force =    -2.82206632   -2.30253496   -0.97536578
     atom   23 type  1   force =     0.84931226    5.40866385    2.53832011
     atom   24 type  1   force =    -1.41769906    2.78259537   -0.94879273
     atom   25 type  1   force =     0.93412812   -3.59457746    0.22321465
     atom   26 type  1   force =    -0.11489919    0.27747229    3.84027972
     atom   27 type  1   force =     5.17384133   -1.34358910   -0.62412606
     atom   28 type  1   force =     2.09763219    1.05820004    1.49220646
     atom   29 type  1   force =    -1.18212683    2.49962455   -3.04184654
     atom   30 type  1   force =    -3.60928748    0.02561344    0.69547570
     atom   31 type  1   force =     4.06092547   -1.66245201   -0.58251325
     atom   32 type  1   force =     2.24053622    0.95660495   -3.47385084
     atom   33 type  1   force =    -2.14315634    0.84042719   -4.40365099
     atom   34 type  1   force =     2.74701224    0.54693036   -1.22662090
     atom   35 type  1   force =     2.55524646    0.16652151    2.02450299
     atom   36 type  1   force =     0.56913204    4.24381119    1.08513713
     atom   37 type  1   force =    -0.22649505    0.15705545    2.73551887
     atom   38 type  1   force =     3.32466196    3.49416510    0.93610822
     atom   39 type  1   force =    -1.13641851   -4.36864402   -0.82617859
     atom   40 type  1   force =     2.74217521   -2.51366567   -0.08896977
     atom   41 type  1   force =    -0.07572563    2.82723377    0.22253604
     atom   42 type  1   force =    -0.87734958    0.80980628    4.78261609
     atom   43 type  1   force =    -3.07344149   -2.86624035    1.66108235
     atom   44 type  1   force =     1.13645500   -3.19273730   -1.05962525
     atom   45 type  2   force =    11.19338912    1.25872198  -11.85943671
     atom   46 type  2   force =    -6.00424200   -9.25384253   13.58339147
     atom   47 type  2   force =     5.76234578    6.21742916  -11.10407045
     atom   48 type  2   force =     1.24390238    5.16773410   12.79112576
     atom   49 type  2   force =   -13.77257226    4.95669620    4.60909495
     atom   50 type  2   force =    -5.16619857   10.22136722  -10.24896727
     atom   51 type  2   force =    -5.15099380    1.69915178   -5.04116097
     atom   52 type  2   force =    -9.98848240    6.13307713   11.70767922
     atom   53 type  2   force =    -1.75503822  -15.67378468   -2.97666615
     atom   54 type  2   force =   -12.05618607  -10.99979195    4.93664702
     atom   55 type  2   force =   -11.18777078   -0.54655367  -15.05554750
     atom   56 type  2   force =     3.60253994   13.93774437    4.84400024
     atom   57 type  2   force =    12.86406894   -0.25518103   10.59289191
     atom   58 type  2   force =    11.66924893   -8.62956185   -2.86960420
     atom   59 type  2   force =    -4.96486598   16.77212789   -1.50125778
     atom   60 type  2   force =     7.96888436   -9.41388878   -3.05982366
     atom   61 type  2   force =     2.57329506   -9.92552291  -14.44081322
     atom   62 type  2   force =    11.16947459   10.98761145   -4.77907883
     atom   63 type  2   force =    14.39764499    0.01109887    5.66828180
     atom   64 type  2   force =     2.16869084  -13.02668685    6.24229052
     atom   65 type  2   force =     5.79935704    1.52797331   13.89195401
     atom   66 type  2   force =   -14.21134771   -8.03313115   -5.79796296
     The local contribution  to forces
     atom    1 type  1   force =    -1.75914244   -2.38569917   -0.84942102
     atom    2 type  1   force =    -0.36942709   -2.65042947    3.20633360
     atom    3 type  1   force =    -1.42306232    2.81879157   -0.58597389
     atom    4 type  1   force =    -1.20085297   -0.26037747   -3.36026467
     atom    5 type  1   force =     2.45134639   -1.98433838    0.30578224
     atom    6 type  1   force =     0.27877104   -1.88712994    4.94824873
     atom    7 type  1   force =    -0.11572827   -3.32050528   -4.37516411
     atom    8 type  1   force =     2.79795791   -0.61443755   -1.43791265
     atom    9 type  1   force =    -0.36162123    0.46065458    0.48559872
     atom   10 type  1   force =     4.81348572    1.33738959    1.23457507
     atom   11 type  1   force =     2.23781292    1.46319948    1.95878120
     atom   12 type  1   force =     4.08541210   -2.91819169    2.14598446
     atom   13 type  1   force =    -0.91265976    2.65890088   -0.19852217
     atom   14 type  1   force =    -1.60022451   -2.90604302    0.38246783
     atom   15 type  1   force =     0.89074015    1.30629894    0.48929363
     atom   16 type  1   force =     5.27439928   -1.06626449   -0.66497308
     atom   17 type  1   force =     1.21123257    4.97184277    2.69486414
     atom   18 type  1   force =    -0.63265154    0.29675201    3.11766407
     atom   19 type  1   force =     0.03813974    0.50531693   -1.58409041
     atom   20 type  1   force =     3.52048985    2.20414875   -3.60251750
     atom   21 type  1   force =    -1.28984291   -0.66977498    0.72512128
     atom   22 type  1   force =     2.80401929    2.31602432    0.97729724
     atom   23 type  1   force =    -0.85147663   -5.36557305   -2.51558740
     atom   24 type  1   force =     1.40074322   -2.76914614    0.93122969
     atom   25 type  1   force =    -0.95524092    3.53800085   -0.25422393
     atom   26 type  1   force =     0.06827014   -0.25703763   -3.80136877
     atom   27 type  1   force =    -5.15027311    1.33493723    0.61382742
     atom   28 type  1   force =    -2.08445021   -1.05411652   -1.48495608
     atom   29 type  1   force =     1.18443131   -2.51476421    3.03706747
     atom   30 type  1   force =     3.56443843   -0.07572674   -0.66473066
     atom   31 type  1   force =    -3.97737446    1.62417685    0.60033615
     atom   32 type  1   force =    -2.26615353   -0.88369979    3.38786046
     atom   33 type  1   force =     2.11983794   -0.80505225    4.38421890
     atom   34 type  1   force =    -2.72515157   -0.49371227    1.24409384
     atom   35 type  1   force =    -2.54258147   -0.18006453   -2.04305495
     atom   36 type  1   force =    -0.59635771   -4.18857275   -1.06771824
     atom   37 type  1   force =     0.20601660   -0.13894594   -2.73539227
     atom   38 type  1   force =    -3.34275687   -3.49661358   -0.93348470
     atom   39 type  1   force =     1.14523068    4.35844648    0.81788060
     atom   40 type  1   force =    -2.75954613    2.51982920    0.06171824
     atom   41 type  1   force =     0.06303531   -2.78551820   -0.25444496
     atom   42 type  1   force =     0.85327207   -0.78090114   -4.72962199
     atom   43 type  1   force =     3.05718737    2.86586544   -1.62815995
     atom   44 type  1   force =    -1.07405908    3.15092360    1.04417974
     atom   45 type  2   force =   -10.48511928   -2.88048224   11.37459921
     atom   46 type  2   force =     4.38636447    8.87984473  -13.16009142
     atom   47 type  2   force =    -3.88157520   -7.00501765   11.86770987
     atom   48 type  2   force =     0.14790832   -6.13843077  -13.62185443
     atom   49 type  2   force =    13.66133144   -3.59854643   -3.22356509
     atom   50 type  2   force =     6.94626456   -9.59958923   10.50959255
     atom   51 type  2   force =     3.40068004   -1.53748961    4.38062344
     atom   52 type  2   force =    11.09405938   -5.31847404  -10.24616345
     atom   53 type  2   force =     1.78572343   15.92824721    4.87455007
     atom   54 type  2   force =    11.89351438   10.63315752   -6.53306533
     atom   55 type  2   force =    10.35606038    1.13858588   13.54864775
     atom   56 type  2   force =    -2.89514763  -15.41476158   -4.86997791
     atom   57 type  2   force =   -11.30338812    1.25043304  -10.63521363
     atom   58 type  2   force =   -13.15746864    7.68856719    2.16743089
     atom   59 type  2   force =     5.89613201  -15.56234521    2.26401000
     atom   60 type  2   force =    -9.27373665    8.67253992    3.90328168
     atom   61 type  2   force =    -2.43284047    7.91769565   14.63816944
     atom   62 type  2   force =   -10.76030917  -11.20462393    3.02105715
     atom   63 type  2   force =   -13.59083488   -1.63616307   -6.25148170
     atom   64 type  2   force =    -2.55779073   13.87229296   -5.00518584
     atom   65 type  2   force =    -4.73379522   -2.67363288  -14.15414223
     atom   66 type  2   force =    13.21212934    9.18800982    4.83404442
     The core correction contribution to forces
     atom    1 type  1   force =     0.00000000    0.00000000    0.00000000
     atom    2 type  1   force =     0.00000000    0.00000000    0.00000000
     atom    3 type  1   force =     0.00000000    0.00000000    0.00000000
     atom    4 type  1   force =     0.00000000    0.00000000    0.00000000
     atom    5 type  1   force =     0.00000000    0.00000000    0.00000000
     atom    6 type  1   force =     0.00000000    0.00000000    0.00000000
     atom    7 type  1   force =     0.00000000    0.00000000    0.00000000
     atom    8 type  1   force =     0.00000000    0.00000000    0.00000000
     atom    9 type  1   force =     0.00000000    0.00000000    0.00000000
     atom   10 type  1   force =     0.00000000    0.00000000    0.00000000
     atom   11 type  1   force =     0.00000000    0.00000000    0.00000000
     atom   12 type  1   force =     0.00000000    0.00000000    0.00000000
     atom   13 type  1   force =     0.00000000    0.00000000    0.00000000
     atom   14 type  1   force =     0.00000000    0.00000000    0.00000000
     atom   15 type  1   force =     0.00000000    0.00000000    0.00000000
     atom   16 type  1   force =     0.00000000    0.00000000    0.00000000
     atom   17 type  1   force =     0.00000000    0.00000000    0.00000000
     atom   18 type  1   force =     0.00000000    0.00000000    0.00000000
     atom   19 type  1   force =     0.00000000    0.00000000    0.00000000
     atom   20 type  1   force =     0.00000000    0.00000000    0.00000000
     atom   21 type  1   force =     0.00000000    0.00000000    0.00000000
     atom   22 type  1   force =     0.00000000    0.00000000    0.00000000
     atom   23 type  1   force =     0.00000000    0.00000000    0.00000000
     atom   24 type  1   force =     0.00000000    0.00000000    0.00000000
     atom   25 type  1   force =     0.00000000    0.00000000    0.00000000
     atom   26 type  1   force =     0.00000000    0.00000000    0.00000000
     atom   27 type  1   force =     0.00000000    0.00000000    0.00000000
     atom   28 type  1   force =     0.00000000    0.00000000    0.00000000
     atom   29 type  1   force =     0.00000000    0.00000000    0.00000000
     atom   30 type  1   force =     0.00000000    0.00000000    0.00000000
     atom   31 type  1   force =     0.00000000    0.00000000    0.00000000
     atom   32 type  1   force =     0.00000000    0.00000000    0.00000000
     atom   33 type  1   force =     0.00000000    0.00000000    0.00000000
     atom   34 type  1   force =     0.00000000    0.00000000    0.00000000
     atom   35 type  1   force =     0.00000000    0.00000000    0.00000000
     atom   36 type  1   force =     0.00000000    0.00000000    0.00000000
     atom   37 type  1   force =     0.00000000    0.00000000    0.00000000
     atom   38 type  1   force =     0.00000000    0.00000000    0.00000000
     atom   39 type  1   force =     0.00000000    0.00000000    0.00000000
     atom   40 type  1   force =     0.00000000    0.00000000    0.00000000
     atom   41 type  1   force =     0.00000000    0.00000000    0.00000000
     atom   42 type  1   force =     0.00000000    0.00000000    0.00000000
     atom   43 type  1   force =     0.00000000    0.00000000    0.00000000
     atom   44 type  1   force =     0.00000000    0.00000000    0.00000000
     atom   45 type  2   force =     0.00664207   -0.01735353   -0.00323572
     atom   46 type  2   force =    -0.01637096   -0.00353133    0.00470045
     atom   47 type  2   force =     0.02024533   -0.00880041    0.00848439
     atom   48 type  2   force =     0.01490762   -0.01007195   -0.00947121
     atom   49 type  2   force =    -0.00007541    0.01478223    0.01533027
     atom   50 type  2   force =     0.01870950    0.00543779    0.00380037
     atom   51 type  2   force =    -0.01726326    0.00167882   -0.00664396
     atom   52 type  2   force =     0.01264779    0.00721304    0.01381109
     atom   53 type  2   force =     0.00179339    0.00391070    0.01978468
     atom   54 type  2   force =    -0.00126339   -0.00419957   -0.01671379
     atom   55 type  2   force =    -0.00816862    0.00612387   -0.01542728
     atom   56 type  2   force =     0.00671439   -0.01620220   -0.00052886
     atom   57 type  2   force =     0.01435242    0.01007387   -0.00087351
     atom   58 type  2   force =    -0.01754541   -0.00956566   -0.00749010
     atom   59 type  2   force =     0.00947538    0.01091063    0.00859507
     atom   60 type  2   force =    -0.01252834   -0.00700226    0.00866217
     atom   61 type  2   force =     0.00176314   -0.02041412    0.00273092
     atom   62 type  2   force =     0.00380868   -0.00265867   -0.01883038
     atom   63 type  2   force =     0.00730966   -0.01875479   -0.00749466
     atom   64 type  2   force =    -0.00379811    0.00986202    0.01207393
     atom   65 type  2   force =     0.01061409   -0.01232742   -0.00404113
     atom   66 type  2   force =    -0.01001918    0.01305011   -0.01029038
     The Hubbard contrib.    to forces
     atom    1 type  1   force =     0.00000000    0.00000000    0.00000000
     atom    2 type  1   force =     0.00000000    0.00000000    0.00000000
     atom    3 type  1   force =     0.00000000    0.00000000    0.00000000
     atom    4 type  1   force =     0.00000000    0.00000000    0.00000000
     atom    5 type  1   force =     0.00000000    0.00000000    0.00000000
     atom    6 type  1   force =     0.00000000    0.00000000    0.00000000
     atom    7 type  1   force =     0.00000000    0.00000000    0.00000000
     atom    8 type  1   force =     0.00000000    0.00000000    0.00000000
     atom    9 type  1   force =     0.00000000    0.00000000    0.00000000
     atom   10 type  1   force =     0.00000000    0.00000000    0.00000000
     atom   11 type  1   force =     0.00000000    0.00000000    0.00000000
     atom   12 type  1   force =     0.00000000    0.00000000    0.00000000
     atom   13 type  1   force =     0.00000000    0.00000000    0.00000000
     atom   14 type  1   force =     0.00000000    0.00000000    0.00000000
     atom   15 type  1   force =     0.00000000    0.00000000    0.00000000
     atom   16 type  1   force =     0.00000000    0.00000000    0.00000000
     atom   17 type  1   force =     0.00000000    0.00000000    0.00000000
     atom   18 type  1   force =     0.00000000    0.00000000    0.00000000
     atom   19 type  1   force =     0.00000000    0.00000000    0.00000000
     atom   20 type  1   force =     0.00000000    0.00000000    0.00000000
     atom   21 type  1   force =     0.00000000    0.00000000    0.00000000
     atom   22 type  1   force =     0.00000000    0.00000000    0.00000000
     atom   23 type  1   force =     0.00000000    0.00000000    0.00000000
     atom   24 type  1   force =     0.00000000    0.00000000    0.00000000
     atom   25 type  1   force =     0.00000000    0.00000000    0.00000000
     atom   26 type  1   force =     0.00000000    0.00000000    0.00000000
     atom   27 type  1   force =     0.00000000    0.00000000    0.00000000
     atom   28 type  1   force =     0.00000000    0.00000000    0.00000000
     atom   29 type  1   force =     0.00000000    0.00000000    0.00000000
     atom   30 type  1   force =     0.00000000    0.00000000    0.00000000
     atom   31 type  1   force =     0.00000000    0.00000000    0.00000000
     atom   32 type  1   force =     0.00000000    0.00000000    0.00000000
     atom   33 type  1   force =     0.00000000    0.00000000    0.00000000
     atom   34 type  1   force =     0.00000000    0.00000000    0.00000000
     atom   35 type  1   force =     0.00000000    0.00000000    0.00000000
     atom   36 type  1   force =     0.00000000    0.00000000    0.00000000
     atom   37 type  1   force =     0.00000000    0.00000000    0.00000000
     atom   38 type  1   force =     0.00000000    0.00000000    0.00000000
     atom   39 type  1   force =     0.00000000    0.00000000    0.00000000
     atom   40 type  1   force =     0.00000000    0.00000000    0.00000000
     atom   41 type  1   force =     0.00000000    0.00000000    0.00000000
     atom   42 type  1   force =     0.00000000    0.00000000    0.00000000
     atom   43 type  1   force =     0.00000000    0.00000000    0.00000000
     atom   44 type  1   force =     0.00000000    0.00000000    0.00000000
     atom   45 type  2   force =     0.00000000    0.00000000    0.00000000
     atom   46 type  2   force =     0.00000000    0.00000000    0.00000000
     atom   47 type  2   force =     0.00000000    0.00000000    0.00000000
     atom   48 type  2   force =     0.00000000    0.00000000    0.00000000
     atom   49 type  2   force =     0.00000000    0.00000000    0.00000000
     atom   50 type  2   force =     0.00000000    0.00000000    0.00000000
     atom   51 type  2   force =     0.00000000    0.00000000    0.00000000
     atom   52 type  2   force =     0.00000000    0.00000000    0.00000000
     atom   53 type  2   force =     0.00000000    0.00000000    0.00000000
     atom   54 type  2   force =     0.00000000    0.00000000    0.00000000
     atom   55 type  2   force =     0.00000000    0.00000000    0.00000000
     atom   56 type  2   force =     0.00000000    0.00000000    0.00000000
     atom   57 type  2   force =     0.00000000    0.00000000    0.00000000
     atom   58 type  2   force =     0.00000000    0.00000000    0.00000000
     atom   59 type  2   force =     0.00000000    0.00000000    0.00000000
     atom   60 type  2   force =     0.00000000    0.00000000    0.00000000
     atom   61 type  2   force =     0.00000000    0.00000000    0.00000000
     atom   62 type  2   force =     0.00000000    0.00000000    0.00000000
     atom   63 type  2   force =     0.00000000    0.00000000    0.00000000
     atom   64 type  2   force =     0.00000000    0.00000000    0.00000000
     atom   65 type  2   force =     0.00000000    0.00000000    0.00000000
     atom   66 type  2   force =     0.00000000    0.00000000    0.00000000
     The SCF correction term to forces
     atom    1 type  1   force =     0.00000722   -0.00003194   -0.00004220
     atom    2 type  1   force =     0.00001955   -0.00003043    0.00000108
     atom    3 type  1   force =    -0.00002339   -0.00000540    0.00000118
     atom    4 type  1   force =    -0.00003932   -0.00001711   -0.00000216
     atom    5 type  1   force =     0.00008322   -0.00002045   -0.00003463
     atom    6 type  1   force =     0.00003764   -0.00003274    0.00008549
     atom    7 type  1   force =     0.00000017   -0.00004104   -0.00004319
     atom    8 type  1   force =     0.00003672   -0.00000148    0.00000235
     atom    9 type  1   force =    -0.00001202    0.00001239    0.00002069
     atom   10 type  1   force =     0.00002287    0.00001820    0.00002201
     atom   11 type  1   force =     0.00002035    0.00000289   -0.00000423
     atom   12 type  1   force =     0.00003434   -0.00001847    0.00000346
     atom   13 type  1   force =    -0.00001500    0.00002177   -0.00001044
     atom   14 type  1   force =    -0.00003245   -0.00002386   -0.00001255
     atom   15 type  1   force =     0.00000660    0.00002640    0.00002583
     atom   16 type  1   force =     0.00004865    0.00000192    0.00001565
     atom   17 type  1   force =     0.00001476    0.00003149    0.00003145
     atom   18 type  1   force =     0.00000518   -0.00001793    0.00002767
     atom   19 type  1   force =     0.00000079   -0.00000608    0.00000929
     atom   20 type  1   force =     0.00002124    0.00000815   -0.00002492
     atom   21 type  1   force =    -0.00004055    0.00000220   -0.00002944
     atom   22 type  1   force =    -0.00000548    0.00003297   -0.00002862
     atom   23 type  1   force =    -0.00000604   -0.00004495   -0.00002139
     atom   24 type  1   force =     0.00002138   -0.00000498    0.00002355
     atom   25 type  1   force =     0.00002539    0.00003715    0.00001833
     atom   26 type  1   force =     0.00005292   -0.00000688   -0.00002273
     atom   27 type  1   force =    -0.00004344   -0.00000673   -0.00000540
     atom   28 type  1   force =    -0.00001401   -0.00002875   -0.00001797
     atom   29 type  1   force =     0.00001583    0.00000436    0.00000824
     atom   30 type  1   force =     0.00001887    0.00001461    0.00001131
     atom   31 type  1   force =    -0.00003845   -0.00000946    0.00000581
     atom   32 type  1   force =    -0.00001926   -0.00002302    0.00002650
     atom   33 type  1   force =     0.00002548   -0.00001346    0.00001616
     atom   34 type  1   force =    -0.00000007   -0.00000803   -0.00000270
     atom   35 type  1   force =     0.00001401   -0.00000922   -0.00000821
     atom   36 type  1   force =    -0.00000214    0.00000374   -0.00001096
     atom   37 type  1   force =    -0.00001147   -0.00000359   -0.00000540
     atom   38 type  1   force =    -0.00000947   -0.00001412    0.00000194
     atom   39 type  1   force =     0.00002987    0.00002755    0.00002046
     atom   40 type  1   force =    -0.00001259    0.00001099   -0.00000058
     atom   41 type  1   force =     0.00000052    0.00000947    0.00000373
     atom   42 type  1   force =    -0.00000169    0.00001050   -0.00000157
     atom   43 type  1   force =     0.00000121    0.00002103   -0.00002433
     atom   44 type  1   force =    -0.00002823    0.00001475    0.00000067
     atom   45 type  2   force =     0.00008047   -0.00023533   -0.00012128
     atom   46 type  2   force =    -0.00036883   -0.00005013    0.00007991
     atom   47 type  2   force =     0.00027900   -0.00011369    0.00007416
     atom   48 type  2   force =     0.00006364   -0.00015988   -0.00014102
     atom   49 type  2   force =     0.00005476    0.00017189    0.00022011
     atom   50 type  2   force =     0.00019947   -0.00005052    0.00000273
     atom   51 type  2   force =    -0.00019513    0.00001214   -0.00006135
     atom   52 type  2   force =     0.00017956    0.00007772    0.00017206
     atom   53 type  2   force =     0.00003593    0.00003893    0.00023324
     atom   54 type  2   force =     0.00004995    0.00001787   -0.00007189
     atom   55 type  2   force =    -0.00021818    0.00011115   -0.00027784
     atom   56 type  2   force =    -0.00000031   -0.00015526    0.00001693
     atom   57 type  2   force =     0.00021500    0.00002022    0.00004073
     atom   58 type  2   force =    -0.00021450   -0.00016846   -0.00012865
     atom   59 type  2   force =     0.00018549    0.00014795    0.00006943
     atom   60 type  2   force =    -0.00018160   -0.00007676    0.00009852
     atom   61 type  2   force =     0.00012513   -0.00011315    0.00007927
     atom   62 type  2   force =     0.00010767   -0.00000370   -0.00030184
     atom   63 type  2   force =    -0.00002119   -0.00005711    0.00002828
     atom   64 type  2   force =     0.00005430    0.00005224    0.00010301
     atom   65 type  2   force =     0.00008475    0.00002125    0.00000799
     atom   66 type  2   force =    -0.00020931    0.00014079   -0.00005253

     Total force =     0.509543     Total SCF correction =     0.001175


     Computing stress (Cartesian axis) and pressure


     negative rho (up, down):  4.962E-01 0.000E+00
          total   stress  (Ry/bohr**3)                   (kbar)     P=       -2.95
  -0.00002065  -0.00000044  -0.00000008           -3.04       -0.06       -0.01
  -0.00000044  -0.00001959   0.00000008           -0.06       -2.88        0.01
  -0.00000008   0.00000008  -0.00001990           -0.01        0.01       -2.93


     init_run     :      7.52s CPU      7.93s WALL (       1 calls)
     electrons    :     74.88s CPU     80.23s WALL (       1 calls)
     forces       :      5.55s CPU      5.84s WALL (       1 calls)
     stress       :     16.64s CPU     16.96s WALL (       1 calls)

     Called by init_run:
     wfcinit      :      2.76s CPU      2.92s WALL (       1 calls)
     potinit      :      1.31s CPU      1.37s WALL (       1 calls)
     hinit0       :      0.99s CPU      1.07s WALL (       1 calls)

     Called by electrons:
     c_bands      :     50.28s CPU     53.25s WALL (      10 calls)
     sum_band     :     13.82s CPU     14.94s WALL (      10 calls)
     v_of_rho     :      6.55s CPU      7.05s WALL (      11 calls)
     newd         :      2.97s CPU      3.73s WALL (      11 calls)
     PAW_pot      :      1.05s CPU      1.05s WALL (      11 calls)
     mix_rho      :      1.00s CPU      1.08s WALL (      10 calls)

     Called by c_bands:
     init_us_2    :      0.67s CPU      0.69s WALL (      21 calls)
     init_us_2:cp :      0.67s CPU      0.69s WALL (      21 calls)
     regterg      :     49.25s CPU     52.21s WALL (      10 calls)

     Called by *egterg:
     rdiaghg      :      0.24s CPU      0.25s WALL (      32 calls)
     h_psi        :     44.14s CPU     46.70s WALL (      33 calls)
     s_psi        :      1.40s CPU      1.41s WALL (      33 calls)
     g_psi        :      0.14s CPU      0.14s WALL (      22 calls)

     Called by h_psi:
     h_psi:calbec :      1.40s CPU      1.41s WALL (      33 calls)
     vloc_psi     :     40.97s CPU     43.49s WALL (      33 calls)
     add_vuspsi   :      1.41s CPU      1.42s WALL (      33 calls)

     General routines
     calbec       :      2.13s CPU      2.15s WALL (      48 calls)
     fft          :      3.60s CPU      4.09s WALL (     119 calls)
     ffts         :      0.24s CPU      0.28s WALL (      10 calls)
     fftw         :     36.26s CPU     39.03s WALL (    2908 calls)

     Parallel routines

     PWSCF        :   1m44.73s CPU   1m51.19s WALL


   This run was terminated on:  23:10:55  27Mar2024            

=------------------------------------------------------------------------------=
   JOB DONE.
=------------------------------------------------------------------------------=
