
     Program PWSCF v.7.2 starts on 27Mar2024 at 22:25:12 

     This program is part of the open-source Quantum ESPRESSO suite
     for quantum simulation of materials; please cite
         "P. Giannozzi et al., J. Phys.:Condens. Matter 21 395502 (2009);
         "P. Giannozzi et al., J. Phys.:Condens. Matter 29 465901 (2017);
         "P. Giannozzi et al., J. Chem. Phys. 152 154105 (2020);
          URL http://www.quantum-espresso.org", 
     in publications or presentations arising from this work. More details at
     http://www.quantum-espresso.org/quote

     Parallel version (MPI), running on    32 processors

     MPI processes distributed on     1 nodes
     175132 MiB available memory on the printing compute node when the environment starts

     Reading input from pw-wt-395.in
Warning: card &CELL ignored
Warning: card / ignored

     Current dimensions of program PWSCF are:
     Max number of different atomic species (ntypx) = 10
     Max number of k-points (npk) =  40000
     Max angular momentum in pseudopotentials (lmaxx) =  4
     file O.pbe-n-kjpaw_psl.0.1.UPF: wavefunction(s)  2P renormalized

     IMPORTANT: XC functional enforced from input :
     Exchange-correlation= PBE
                           (   1   4   3   4   0   0   0)
     Any further DFT definition will be discarded
     Please, verify this is what you really want


     gamma-point specific algorithms are used

     R & G space division:  proc/nbgrp/npool/nimage =      32
     Subspace diagonalization in iterative solution of the eigenvalue problem:
     a serial algorithm will be used


     Parallelization info
     --------------------
     sticks:   dense  smooth     PW     G-vecs:    dense   smooth      PW
     Min        1707    1707    426               301015   301015   37634
     Max        1710    1710    428               301034   301034   37648
     Sum       54693   54693  13673              9632757  9632757 1204469

     Using Slab Decomposition



     bravais-lattice index     =            0
     lattice parameter (alat)  =      75.7119  a.u.
     unit-cell volume          =  434002.3113 (a.u.)^3
     number of atoms/cell      =           66
     number of atomic types    =            2
     number of electrons       =       176.00
     number of Kohn-Sham states=           88
     kinetic-energy cutoff     =      30.0000  Ry
     charge density cutoff     =     120.0000  Ry
     scf convergence threshold =      1.0E-06
     mixing beta               =       0.5000
     number of iterations used =            8  plain     mixing
     Exchange-correlation= PBE
                           (   1   4   3   4   0   0   0)

     celldm(1)=  75.711877  celldm(2)=   0.000000  celldm(3)=   0.000000
     celldm(4)=   0.000000  celldm(5)=   0.000000  celldm(6)=   0.000000

     crystal axes: (cart. coord. in units of alat)
               a(1) = (   1.000000   0.000000   0.000000 )  
               a(2) = (   0.000000   1.000000   0.000000 )  
               a(3) = (   0.000000   0.000000   1.000000 )  

     reciprocal axes: (cart. coord. in units 2 pi/alat)
               b(1) = (  1.000000  0.000000  0.000000 )  
               b(2) = (  0.000000  1.000000  0.000000 )  
               b(3) = (  0.000000  0.000000  1.000000 )  


     PseudoPot. # 1 for H  read from file:
     /share/pfaendtnergroup/rverma7/QE_PP/H.pbe-rrkjus_psl.1.0.0.UPF
     MD5 check sum: f52b6d4d1c606e5624b1dc7b2218f220
     Pseudo is Ultrasoft, Zval =  1.0
     Generated using "atomic" code by A. Dal Corso  v.5.1
     Using radial grid of  929 points,  2 beta functions with: 
                l(1) =   0
                l(2) =   0
     Q(r) pseudized with 0 coefficients 


     PseudoPot. # 2 for O  read from file:
     /share/pfaendtnergroup/rverma7/QE_PP/O.pbe-n-kjpaw_psl.0.1.UPF
     MD5 check sum: 0234752ac141de4415c5fc33072bef88
     Pseudo is Projector augmented-wave + core cor, Zval =  6.0
     Generated using "atomic" code by A. Dal Corso  v.5.0.99 svn rev. 10869
     Shape of augmentation charge: BESSEL
     Using radial grid of 1095 points,  4 beta functions with: 
                l(1) =   0
                l(2) =   0
                l(3) =   1
                l(4) =   1
     Q(r) pseudized with 0 coefficients 


     atomic species   valence    mass     pseudopotential
        H              1.00     1.00800     H ( 1.00)
        O              6.00    15.99900     O ( 1.00)

     No symmetry found



   Cartesian axes

     site n.     atom                  positions (alat units)
         1           H   tau(   1) = (   0.2511419   0.2235867   0.5036566  )
         2           H   tau(   2) = (   0.2424310   0.1907900   0.5273431  )
         3           H   tau(   3) = (   0.2665918   0.2772495   0.3555972  )
         4           H   tau(   4) = (   0.2721078   0.2453763   0.3785349  )
         5           H   tau(   5) = (   0.2482716   0.1962561   0.3783851  )
         6           H   tau(   6) = (   0.2778235   0.1993011   0.4045925  )
         7           H   tau(   7) = (   0.2780232   0.3190316   0.4454012  )
         8           H   tau(   8) = (   0.2669412   0.2881567   0.4183951  )
         9           H   tau(   9) = (   0.3127917   0.2701610   0.4377636  )
        10           H   tau(  10) = (   0.3351554   0.2418570   0.4590540  )
        11           H   tau(  11) = (   0.3814551   0.1844503   0.4183202  )
        12           H   tau(  12) = (   0.3869712   0.1449145   0.4281792  )
        13           H   tau(  13) = (   0.3949332   0.2377886   0.3962810  )
        14           H   tau(  14) = (   0.3592912   0.2297766   0.4159990  )
        15           H   tau(  15) = (   0.2034694   0.2270810   0.3148134  )
        16           H   tau(  16) = (   0.1870461   0.2639960   0.3233496  )
        17           H   tau(  17) = (   0.3560464   0.2613753   0.2790216  )
        18           H   tau(  18) = (   0.3634344   0.2867091   0.2507675  )
        19           H   tau(  19) = (   0.3597654   0.3110945   0.3181830  )
        20           H   tau(  20) = (   0.3253713   0.2995383   0.3279671  )
        21           H   tau(  21) = (   0.3450144   0.1972545   0.5023587  )
        22           H   tau(  22) = (   0.3609884   0.1934606   0.4658430  )
        23           H   tau(  23) = (   0.2544365   0.2717085   0.4743043  )
        24           H   tau(  24) = (   0.2314739   0.2763010   0.5076001  )
        25           H   tau(  25) = (   0.1975789   0.2101335   0.3911394  )
        26           H   tau(  26) = (   0.1886435   0.1699738   0.3924872  )
        27           H   tau(  27) = (   0.2774491   0.3150381   0.3094222  )
        28           H   tau(  28) = (   0.2676151   0.2752028   0.3036066  )
        29           H   tau(  29) = (   0.3073006   0.3740921   0.4311743  )
        30           H   tau(  30) = (   0.3247722   0.3390740   0.4226632  )
        31           H   tau(  31) = (   0.3056284   0.1964058   0.4594534  )
        32           H   tau(  32) = (   0.2643205   0.1942344   0.4675402  )
        33           H   tau(  33) = (   0.3967303   0.2920754   0.3886684  )
        34           H   tau(  34) = (   0.4286285   0.2839386   0.4136778  )
        35           H   tau(  35) = (   0.2194933   0.2426557   0.4448771  )
        36           H   tau(  36) = (   0.2257082   0.2531886   0.4062149  )
        37           H   tau(  37) = (   0.3492075   0.2078123   0.3687009  )
        38           H   tau(  38) = (   0.3087732   0.2035442   0.3605890  )
        39           H   tau(  39) = (   0.3525521   0.2081867   0.2977412  )
        40           H   tau(  40) = (   0.3303881   0.1903657   0.2693124  )
        41           H   tau(  41) = (   0.2029951   0.1641832   0.2967428  )
        42           H   tau(  42) = (   0.1927618   0.1792337   0.3332335  )
        43           H   tau(  43) = (   0.3510046   0.3015849   0.4214901  )
        44           H   tau(  44) = (   0.3508299   0.3148883   0.3824535  )
        45           O   tau(  45) = (   0.2518907   0.1978784   0.5063272  )
        46           O   tau(  46) = (   0.2626981   0.2683140   0.3797829  )
        47           O   tau(  47) = (   0.2727318   0.2027206   0.3789842  )
        48           O   tau(  48) = (   0.2692125   0.2945963   0.4437539  )
        49           O   tau(  49) = (   0.3365781   0.2598777   0.4390615  )
        50           O   tau(  50) = (   0.3781106   0.1675278   0.4367403  )
        51           O   tau(  51) = (   0.3773368   0.2195682   0.3993011  )
        52           O   tau(  52) = (   0.2065144   0.2519406   0.3126669  )
        53           O   tau(  53) = (   0.3597654   0.2860851   0.2752777  )
        54           O   tau(  54) = (   0.3455135   0.3085736   0.3401972  )
        55           O   tau(  55) = (   0.3462623   0.2079371   0.4805691  )
        56           O   tau(  56) = (   0.2426307   0.2574566   0.4938225  )
        57           O   tau(  57) = (   0.1977287   0.1884937   0.3776613  )
        58           O   tau(  58) = (   0.2830650   0.2916511   0.3157369  )
        59           O   tau(  59) = (   0.3058280   0.3493323   0.4371896  )
        60           O   tau(  60) = (   0.2827905   0.1959067   0.4477973  )
        61           O   tau(  61) = (   0.4124048   0.2736553   0.3967054  )
        62           O   tau(  62) = (   0.2092100   0.2406839   0.4221390  )
        63           O   tau(  63) = (   0.3329340   0.2018220   0.3498066  )
        64           O   tau(  64) = (   0.3461126   0.2118308   0.2725571  )
        65           O   tau(  65) = (   0.1916136   0.1831025   0.3084238  )
        66           O   tau(  66) = (   0.3547735   0.3212779   0.4065394  )

     number of k points=     1
                       cart. coord. in units 2pi/alat
        k(    1) = (   0.0000000   0.0000000   0.0000000), wk =   2.0000000

     Dense  grid:  4816379 G-vectors     FFT dimensions: ( 270, 270, 270)

     Estimated max dynamical RAM per process >     612.29 MB

     Estimated total dynamical RAM >      19.13 GB

     Check: negative core charge=   -0.000006

     Initial potential from superposition of free atoms

     starting charge     175.9995, renormalised to     176.0000

     negative rho (up, down):  3.714E-01 0.000E+00
     Starting wfcs are  132 randomized atomic wfcs
     Checking if some PAW data can be deallocated... 

     total cpu time spent up to now is        8.0 secs

     Self-consistent Calculation

     iteration #  1     ecut=    30.00 Ry     beta= 0.50
     Davidson diagonalization with overlap
     ethr =  1.00E-02,  avg # of iterations =  2.0

     negative rho (up, down):  4.368E-01 0.000E+00

     total cpu time spent up to now is       18.5 secs

     total energy              =    -965.73373687 Ry
     estimated scf accuracy    <       6.89938264 Ry

     iteration #  2     ecut=    30.00 Ry     beta= 0.50
     Davidson diagonalization with overlap
     ethr =  3.92E-03,  avg # of iterations =  2.0

     negative rho (up, down):  4.559E-01 0.000E+00

     total cpu time spent up to now is       27.1 secs

     total energy              =    -967.68566478 Ry
     estimated scf accuracy    <       1.05879726 Ry

     iteration #  3     ecut=    30.00 Ry     beta= 0.50
     Davidson diagonalization with overlap
     ethr =  6.02E-04,  avg # of iterations =  2.0

     negative rho (up, down):  4.992E-01 0.000E+00

     total cpu time spent up to now is       34.5 secs

     total energy              =    -967.74384659 Ry
     estimated scf accuracy    <       0.13348792 Ry

     iteration #  4     ecut=    30.00 Ry     beta= 0.50
     Davidson diagonalization with overlap
     ethr =  7.58E-05,  avg # of iterations =  3.0

     negative rho (up, down):  5.002E-01 0.000E+00

     total cpu time spent up to now is       43.2 secs

     total energy              =    -967.76882350 Ry
     estimated scf accuracy    <       0.04204924 Ry

     iteration #  5     ecut=    30.00 Ry     beta= 0.50
     Davidson diagonalization with overlap
     ethr =  2.39E-05,  avg # of iterations =  2.0

     negative rho (up, down):  4.992E-01 0.000E+00

     total cpu time spent up to now is       50.2 secs

     total energy              =    -967.76928629 Ry
     estimated scf accuracy    <       0.00839246 Ry

     iteration #  6     ecut=    30.00 Ry     beta= 0.50
     Davidson diagonalization with overlap
     ethr =  4.77E-06,  avg # of iterations =  2.0

     negative rho (up, down):  4.984E-01 0.000E+00

     total cpu time spent up to now is       57.3 secs

     total energy              =    -967.76960867 Ry
     estimated scf accuracy    <       0.00167004 Ry

     iteration #  7     ecut=    30.00 Ry     beta= 0.50
     Davidson diagonalization with overlap
     ethr =  9.49E-07,  avg # of iterations =  2.0

     negative rho (up, down):  4.980E-01 0.000E+00

     total cpu time spent up to now is       64.8 secs

     total energy              =    -967.76975378 Ry
     estimated scf accuracy    <       0.00025666 Ry

     iteration #  8     ecut=    30.00 Ry     beta= 0.50
     Davidson diagonalization with overlap
     ethr =  1.46E-07,  avg # of iterations =  2.0

     negative rho (up, down):  4.980E-01 0.000E+00

     total cpu time spent up to now is       73.0 secs

     total energy              =    -967.76981575 Ry
     estimated scf accuracy    <       0.00001674 Ry

     iteration #  9     ecut=    30.00 Ry     beta= 0.50
     Davidson diagonalization with overlap
     ethr =  9.51E-09,  avg # of iterations =  2.0

     negative rho (up, down):  4.981E-01 0.000E+00

     total cpu time spent up to now is       80.8 secs

     total energy              =    -967.76981616 Ry
     estimated scf accuracy    <       0.00001062 Ry

     iteration # 10     ecut=    30.00 Ry     beta= 0.50
     Davidson diagonalization with overlap
     ethr =  6.03E-09,  avg # of iterations =  2.0

     negative rho (up, down):  4.981E-01 0.000E+00

     total cpu time spent up to now is       87.8 secs

     total energy              =    -967.76981666 Ry
     estimated scf accuracy    <       0.00000114 Ry

     iteration # 11     ecut=    30.00 Ry     beta= 0.50
     Davidson diagonalization with overlap
     ethr =  6.48E-10,  avg # of iterations =  3.0

     negative rho (up, down):  4.981E-01 0.000E+00

     total cpu time spent up to now is       96.0 secs

     End of self-consistent calculation

          k = 0.0000 0.0000 0.0000 (602235 PWs)   bands (ev):

   -26.0400 -25.8070 -25.4444 -25.4104 -25.3768 -25.2471 -25.0254 -24.9891
   -24.8835 -24.7304 -24.6951 -24.5897 -24.5365 -24.4696 -24.4352 -24.4137
   -24.2420 -24.1449 -24.1276 -24.0285 -23.6551 -22.7314 -13.9968 -13.8327
   -13.5608 -13.3968 -13.3840 -13.1712 -13.0474 -12.8977 -12.8200 -12.8110
   -12.5990 -12.5309 -12.5154 -12.3273 -12.2985 -12.1578 -12.1418 -11.9945
   -11.8669 -11.8391 -11.5716 -11.3227 -10.8687 -10.6166 -10.5387 -10.2527
   -10.1152  -9.9654  -9.9524  -9.7258  -9.6007  -9.3615  -9.2586  -9.1952
    -9.0502  -9.0419  -8.9175  -8.8166  -8.5885  -8.4483  -8.3271  -8.2010
    -8.1068  -7.9762  -7.8453  -7.7761  -7.6145  -7.5167  -7.4487  -7.2835
    -7.2310  -7.1650  -7.1193  -7.1009  -7.0874  -6.9363  -6.9145  -6.8898
    -6.8742  -6.8549  -6.8195  -6.7211  -6.5874  -6.5316  -6.3664  -5.3941

     highest occupied level (ev):    -5.3941

!    total energy              =    -967.76981694 Ry
     estimated scf accuracy    <       0.00000002 Ry

     The total energy is the sum of the following terms:
     one-electron contribution =   -5759.31054181 Ry
     hartree contribution      =    2915.54909976 Ry
     xc contribution           =    -193.33498097 Ry
     ewald contribution        =    2278.65002424 Ry
     one-center paw contrib.   =    -209.32341816 Ry

     convergence has been achieved in  11 iterations

     negative rho (up, down):  4.981E-01 0.000E+00

     Forces acting on atoms (cartesian axes, Ry/au):

     atom    1 type  1   force =    -0.01396118   -0.02997347    0.02545748
     atom    2 type  1   force =    -0.00965012    0.00035232    0.01093599
     atom    3 type  1   force =    -0.00965524   -0.01007531    0.06879520
     atom    4 type  1   force =    -0.00237422   -0.02228439    0.00322454
     atom    5 type  1   force =     0.03337661    0.00384312   -0.01201511
     atom    6 type  1   force =    -0.00579913    0.00302306   -0.04242419
     atom    7 type  1   force =    -0.01034330   -0.04557735   -0.01900468
     atom    8 type  1   force =     0.00393788    0.02177600    0.05305328
     atom    9 type  1   force =     0.05092431   -0.03479465    0.01022852
     atom   10 type  1   force =     0.00852778    0.07314775   -0.06008927
     atom   11 type  1   force =     0.00585468    0.00157270   -0.00499352
     atom   12 type  1   force =    -0.03244230    0.07793373    0.03149857
     atom   13 type  1   force =    -0.02747503   -0.01231820    0.01415337
     atom   14 type  1   force =     0.06077099   -0.00434599   -0.06564420
     atom   15 type  1   force =    -0.01455333    0.02441918   -0.00869406
     atom   16 type  1   force =     0.04250221   -0.04378047   -0.02243689
     atom   17 type  1   force =    -0.00133589    0.03459978   -0.00639505
     atom   18 type  1   force =    -0.00185511    0.00478010    0.02511803
     atom   19 type  1   force =    -0.03273247   -0.01001385    0.08351112
     atom   20 type  1   force =     0.01110699   -0.00104607    0.03730243
     atom   21 type  1   force =     0.00016184   -0.00162513    0.00544199
     atom   22 type  1   force =    -0.00770715   -0.00862732    0.01715805
     atom   23 type  1   force =    -0.01945560   -0.02675953    0.03863872
     atom   24 type  1   force =     0.03524295   -0.06926922   -0.04134291
     atom   25 type  1   force =    -0.00377323   -0.03703262    0.00682533
     atom   26 type  1   force =     0.02392875    0.05739313   -0.02785941
     atom   27 type  1   force =    -0.00912500   -0.03589257   -0.00242794
     atom   28 type  1   force =     0.03257455    0.05462334    0.02119405
     atom   29 type  1   force =    -0.01246915   -0.06824523    0.02146558
     atom   30 type  1   force =    -0.01623112    0.01475728    0.01380944
     atom   31 type  1   force =    -0.05740377   -0.00236095   -0.01853483
     atom   32 type  1   force =     0.08509108   -0.00701226   -0.06576809
     atom   33 type  1   force =     0.03966974   -0.03281401    0.03238840
     atom   34 type  1   force =    -0.05646213   -0.02339979   -0.05289024
     atom   35 type  1   force =    -0.01434480   -0.00549579   -0.02905774
     atom   36 type  1   force =    -0.04121891   -0.02853904    0.04636704
     atom   37 type  1   force =    -0.02838814   -0.00698400   -0.03924786
     atom   38 type  1   force =     0.08496689   -0.01533366   -0.04321986
     atom   39 type  1   force =    -0.03269336    0.00996794   -0.07011320
     atom   40 type  1   force =     0.07175629    0.10585475    0.01398452
     atom   41 type  1   force =    -0.01448422    0.03046792    0.02818686
     atom   42 type  1   force =     0.00419078   -0.00235311   -0.01996714
     atom   43 type  1   force =     0.01077833   -0.00546453   -0.02151168
     atom   44 type  1   force =    -0.01005352   -0.00311915    0.00957662
     atom   45 type  2   force =     0.02038307    0.00583098   -0.01954221
     atom   46 type  2   force =     0.00188166    0.04767584   -0.05307346
     atom   47 type  2   force =    -0.03707761   -0.01987685    0.08194891
     atom   48 type  2   force =     0.01243587    0.00804069   -0.04330483
     atom   49 type  2   force =    -0.06248762   -0.03089622    0.05943616
     atom   50 type  2   force =     0.03129201   -0.08146418   -0.01830892
     atom   51 type  2   force =    -0.04898812    0.02382539    0.04668979
     atom   52 type  2   force =    -0.02067759    0.02071686    0.02021029
     atom   53 type  2   force =     0.00084311   -0.03959143   -0.02129450
     atom   54 type  2   force =     0.02854929    0.00511044   -0.11415685
     atom   55 type  2   force =     0.00536629   -0.00612400   -0.02216727
     atom   56 type  2   force =    -0.01351006    0.13998749   -0.01953126
     atom   57 type  2   force =    -0.01490881   -0.02469613    0.03101780
     atom   58 type  2   force =    -0.04086972   -0.02251388   -0.01880125
     atom   59 type  2   force =     0.01478529    0.07264062   -0.02528433
     atom   60 type  2   force =    -0.02269990   -0.00113037    0.06575789
     atom   61 type  2   force =     0.03386078    0.07011317    0.01818469
     atom   62 type  2   force =     0.05067259    0.03869304   -0.03401715
     atom   63 type  2   force =    -0.03830531    0.01598007    0.05096838
     atom   64 type  2   force =    -0.04208336   -0.11081355    0.07038927
     atom   65 type  2   force =     0.01096955   -0.02269578    0.00121638
     atom   66 type  2   force =     0.01119337   -0.01278664   -0.00101479
     The non-local contrib.  to forces
     atom    1 type  1   force =    -0.00002812   -0.07869990    0.01075143
     atom    2 type  1   force =     0.04360692    0.03628683   -0.09836995
     atom    3 type  1   force =    -0.01229372   -0.03021100    0.07804837
     atom    4 type  1   force =    -0.03792970    0.09379968    0.00391496
     atom    5 type  1   force =     0.09309232    0.02482310    0.00358366
     atom    6 type  1   force =    -0.01709889    0.01050883   -0.07895277
     atom    7 type  1   force =    -0.02833835   -0.07920478   -0.00739468
     atom    8 type  1   force =     0.00753997    0.02152590    0.07823173
     atom    9 type  1   force =     0.07913433   -0.03603068    0.00494862
     atom   10 type  1   force =     0.00216427    0.04886248   -0.05413654
     atom   11 type  1   force =    -0.01157277   -0.06386936    0.06662610
     atom   12 type  1   force =    -0.03004810    0.07932663    0.02819433
     atom   13 type  1   force =    -0.06331089   -0.06274132    0.01231576
     atom   14 type  1   force =     0.05395042   -0.02872695   -0.04774173
     atom   15 type  1   force =     0.00842284    0.09786569   -0.00540828
     atom   16 type  1   force =     0.07245814   -0.04914081   -0.03948090
     atom   17 type  1   force =     0.01511382    0.09553526   -0.01631640
     atom   18 type  1   force =    -0.01544081   -0.00468170    0.10252125
     atom   19 type  1   force =    -0.04490648   -0.00731868    0.06979750
     atom   20 type  1   force =     0.07757258    0.03540770    0.04673860
     atom   21 type  1   force =     0.00722314    0.04735855   -0.10138432
     atom   22 type  1   force =    -0.05463396    0.05249988    0.05672875
     atom   23 type  1   force =    -0.03191444   -0.03662820    0.05239628
     atom   24 type  1   force =     0.03868648   -0.06355074   -0.04747084
     atom   25 type  1   force =    -0.00087013   -0.08058735   -0.04756555
     atom   26 type  1   force =     0.03359926    0.07138038   -0.05318010
     atom   27 type  1   force =     0.02006639   -0.09893105    0.02406395
     atom   28 type  1   force =     0.05523876    0.06336213    0.04231173
     atom   29 type  1   force =    -0.00448523   -0.08976544    0.02046032
     atom   30 type  1   force =    -0.05761346    0.03202634    0.04381385
     atom   31 type  1   force =    -0.08158872   -0.00168164   -0.03932083
     atom   32 type  1   force =     0.04997792    0.00543708   -0.05026808
     atom   33 type  1   force =     0.05966020   -0.06639004    0.03194069
     atom   34 type  1   force =    -0.05972887   -0.03412422   -0.06109571
     atom   35 type  1   force =    -0.03866909   -0.00731432   -0.09254746
     atom   36 type  1   force =    -0.05187077   -0.04046922    0.05427618
     atom   37 type  1   force =    -0.05886989   -0.02052512   -0.06393171
     atom   38 type  1   force =     0.07112287   -0.00371481   -0.02878979
     atom   39 type  1   force =    -0.02102576    0.01025711   -0.08187431
     atom   40 type  1   force =     0.04500616    0.06102787    0.01098846
     atom   41 type  1   force =    -0.04468448    0.07487521    0.05039345
     atom   42 type  1   force =    -0.00236292    0.01117362   -0.09818129
     atom   43 type  1   force =     0.01374519    0.07803080   -0.06320626
     atom   44 type  1   force =     0.01425946    0.02066421    0.09333135
     atom   45 type  2   force =    -0.76932473    0.85985029    1.36704632
     atom   46 type  2   force =     0.77969510   -0.75973832   -1.33829711
     atom   47 type  2   force =    -1.22346609   -0.42552530    1.36434030
     atom   48 type  2   force =     0.35097075    0.88354963   -1.21296091
     atom   49 type  2   force =    -1.56574416   -0.40491745    0.95494638
     atom   50 type  2   force =     0.80205289   -0.54304990   -1.57068383
     atom   51 type  2   force =    -0.01266460    1.46174797    0.85980560
     atom   52 type  2   force =    -1.66658649   -0.80461752    1.04378438
     atom   53 type  2   force =     0.05070078   -1.61026186   -1.52506412
     atom   54 type  2   force =    -0.34901028   -0.34342376   -1.95542218
     atom   55 type  2   force =     0.68836628   -1.62749076    0.62214627
     atom   56 type  2   force =    -0.06272651    1.85838512   -0.02202597
     atom   57 type  2   force =    -0.65459319    0.02943335    1.86456110
     atom   58 type  2   force =    -1.58017054    0.62263490   -1.26744125
     atom   59 type  2   force =     0.94655563    1.09965673   -1.23353011
     atom   60 type  2   force =     0.40311481   -0.00879022    1.70208426
     atom   61 type  2   force =     0.03239203    1.93021526    0.70420259
     atom   62 type  2   force =     1.82590084    0.79022225    0.49049251
     atom   63 type  2   force =    -0.39757214    0.54498709    1.78487334
     atom   64 type  2   force =    -0.63106453   -1.60245641    1.45227173
     atom   65 type  2   force =     1.08571684   -1.67643619    0.86984959
     atom   66 type  2   force =    -0.71742937   -1.75949125   -0.48852814
     The ionic contribution  to forces
     atom    1 type  1   force =    -0.65408425    1.42324298    2.28870742
     atom    2 type  1   force =    -2.17624404   -2.16393646    5.02827822
     atom    3 type  1   force =    -0.74466437    2.02942761   -3.07341444
     atom    4 type  1   force =     0.66830114   -2.08733791   -0.84808676
     atom    5 type  1   force =    -3.37926366   -2.55277574   -0.77862604
     atom    6 type  1   force =     0.17723680   -2.16370212    2.12941920
     atom    7 type  1   force =    -0.39254625    4.17886289    1.58264813
     atom    8 type  1   force =    -1.27066498    1.18692273   -1.81070754
     atom    9 type  1   force =    -1.87212389    1.66666897    0.99644575
     atom   10 type  1   force =     0.67394879   -0.76423356    3.45083140
     atom   11 type  1   force =     2.32759496   -0.43905900   -1.68632782
     atom   12 type  1   force =     2.32161043   -4.73321325   -0.68232089
     atom   13 type  1   force =     4.07376145    0.91613778   -0.67412742
     atom   14 type  1   force =    -0.15499990    0.24160017    1.61120272
     atom   15 type  1   force =    -1.51745265   -2.48999313   -1.23056485
     atom   16 type  1   force =    -4.25939099    2.47890969    0.31785294
     atom   17 type  1   force =     0.58511284   -2.55226621   -1.24021114
     atom   18 type  1   force =     1.30090915    0.82016700   -5.17687295
     atom   19 type  1   force =     2.88665571    2.03504832   -3.20228107
     atom   20 type  1   force =    -1.62225172    0.31117539   -2.41621072
     atom   21 type  1   force =     0.72674272   -2.32025421    5.42737485
     atom   22 type  1   force =     2.87995504   -2.56859994    0.45151618
     atom   23 type  1   force =    -0.03666905    2.00939907    0.54473609
     atom   24 type  1   force =    -2.58854097    3.15353176    3.67461524
     atom   25 type  1   force =    -2.43657196    1.48656237    1.27204929
     atom   26 type  1   force =    -2.84154084   -3.99911597    2.08426221
     atom   27 type  1   force =    -1.52588086    4.85689737   -2.39049525
     atom   28 type  1   force =    -2.43722121   -1.33264343   -3.50837120
     atom   29 type  1   force =     0.00040254    5.45182816   -0.14888239
     atom   30 type  1   force =     1.71026577    1.70657274   -0.58943358
     atom   31 type  1   force =     2.29341383   -1.74676332    2.34611481
     atom   32 type  1   force =    -2.31061515   -2.02651555    2.29459560
     atom   33 type  1   force =     0.65436900    3.08881167   -1.33809336
     atom   34 type  1   force =     4.35037752    1.88814966    2.54042550
     atom   35 type  1   force =    -1.14925818    0.20612556    3.65967769
     atom   36 type  1   force =    -0.75476987    1.91829578   -1.37144492
     atom   37 type  1   force =     2.62419975   -0.81987515    0.57479672
     atom   38 type  1   force =    -1.47657978   -1.37310238   -0.54050256
     atom   39 type  1   force =     1.84269346   -1.42847273    1.00062132
     atom   40 type  1   force =    -1.43968779   -3.42062234   -2.16066173
     atom   41 type  1   force =     0.70881543   -3.78919595   -2.97775614
     atom   42 type  1   force =    -1.38306676   -1.96575139    1.62850854
     atom   43 type  1   force =     1.04034986   -0.59874938    2.62338930
     atom   44 type  1   force =     0.61812530    1.22083701   -2.72750471
     atom   45 type  2   force =    -3.95596633   -9.64108259   10.98037833
     atom   46 type  2   force =    -7.28068445    8.18421180   -1.93503159
     atom   47 type  2   force =    -1.07183024   -9.83642729   -6.44350865
     atom   48 type  2   force =    -6.35782367    8.53844701    8.69117925
     atom   49 type  2   force =     7.71895114    4.29936132    6.56141605
     atom   50 type  2   force =     8.00490181  -12.63057667    6.22368725
     atom   51 type  2   force =    11.68760472   -7.14827708   -3.20703803
     atom   52 type  2   force =    -6.27925995    5.31074758  -10.38206982
     atom   53 type  2   force =     6.07061001    6.81687586   -9.17409189
     atom   54 type  2   force =     6.41728857   10.05792863   -3.37706019
     atom   55 type  2   force =     5.71613790   -1.87909016   13.14778615
     atom   56 type  2   force =    -7.40432655    2.47489777   12.88858392
     atom   57 type  2   force =   -10.25647823   -8.73319744   -2.80153276
     atom   58 type  2   force =    -2.10340713    6.04448444   -9.17385477
     atom   59 type  2   force =    -2.54754403   13.91775745    7.66013032
     atom   60 type  2   force =    -2.83982237  -10.76371807    2.92269257
     atom   61 type  2   force =    15.71424790    1.35866680   -1.15016029
     atom   62 type  2   force =   -17.15386926    0.18122113    3.36113279
     atom   63 type  2   force =     5.11226856   -9.93114855  -10.84066122
     atom   64 type  2   force =     4.38337855   -3.58220831  -13.21040498
     atom   65 type  2   force =    -9.17803197   -4.65974004  -10.17246487
     atom   66 type  2   force =     9.56290264   14.68187087    2.47572075
     The local contribution  to forces
     atom    1 type  1   force =     0.64009039   -1.37451595   -2.27401353
     atom    2 type  1   force =     2.12292502    2.12800064   -4.91898431
     atom    3 type  1   force =     0.74724338   -2.00928701    3.06414376
     atom    4 type  1   force =    -0.63280482    1.97125612    0.84738077
     atom    5 type  1   force =     3.31948451    2.53179514    0.76301279
     atom    6 type  1   force =    -0.16599720    2.15621619   -2.09290007
     atom    7 type  1   force =     0.41048371   -4.14522620   -1.59427240
     atom    8 type  1   force =     1.26700248   -1.18667129    1.78550839
     atom    9 type  1   force =     1.84386193   -1.66543242   -0.99118166
     atom   10 type  1   force =    -0.66764495    0.78852541   -3.45680330
     atom   11 type  1   force =    -2.31022516    0.50450030    1.61469327
     atom   12 type  1   force =    -2.32406408    4.73181877    0.68561005
     atom   13 type  1   force =    -4.03798392   -0.86571122    0.67595019
     atom   14 type  1   force =     0.16175922   -0.21721103   -1.62911697
     atom   15 type  1   force =     1.49441099    2.41653208    1.22726294
     atom   16 type  1   force =     4.22936072   -2.47353950   -0.30081885
     atom   17 type  1   force =    -0.60162433    2.49132681    1.25011501
     atom   18 type  1   force =    -1.28738440   -0.81070485    5.09945456
     atom   19 type  1   force =    -2.87454369   -2.03774301    3.21598112
     atom   20 type  1   force =     1.55573067   -0.34762634    2.40676022
     atom   21 type  1   force =    -0.73386490    2.27127016   -5.32056131
     atom   22 type  1   force =    -2.83308688    2.50747102   -0.49110122
     atom   23 type  1   force =     0.04906688   -1.99952711   -0.55850687
     atom   24 type  1   force =     2.58503527   -3.15924515   -3.66850005
     atom   25 type  1   force =     2.43360490   -1.44300104   -1.21766690
     atom   26 type  1   force =     2.83180510    3.98512432   -2.05895046
     atom   27 type  1   force =     1.49662842   -4.79385028    2.36398666
     atom   28 type  1   force =     2.41449261    1.32390278    3.48723385
     atom   29 type  1   force =    -0.00844726   -5.43030745    0.14987249
     atom   30 type  1   force =    -1.66894623   -1.72383870    0.55941407
     atom   31 type  1   force =    -2.26928966    1.74608328   -2.32534135
     atom   32 type  1   force =     2.34566688    2.01406510   -2.31010902
     atom   33 type  1   force =    -0.67442409   -3.05522996    1.33852554
     atom   34 type  1   force =    -4.34717002   -1.87742222   -2.53223173
     atom   35 type  1   force =     1.17352056   -0.20430609   -3.59620223
     atom   36 type  1   force =     0.76535943   -1.90636362    1.36352181
     atom   37 type  1   force =    -2.59378535    0.83341405   -0.55014253
     atom   38 type  1   force =     1.49037806    1.36148320    0.52604797
     atom   39 type  1   force =    -1.85442272    1.42818888   -0.98887895
     atom   40 type  1   force =     1.46638091    3.46545829    2.16364000
     atom   41 type  1   force =    -0.67867721    3.74478890    2.95553239
     atom   42 type  1   force =     1.38955766    1.95222293   -1.55031147
     atom   43 type  1   force =    -1.04337756    0.51525067   -2.58170901
     atom   44 type  1   force =    -0.64249843   -1.24462085    2.64372941
     atom   45 type  2   force =     4.73741624    8.79481150  -12.35280852
     atom   46 type  2   force =     6.51012009   -7.38374891    3.20717312
     atom   47 type  2   force =     2.24628986   10.23759154    5.17442568
     atom   48 type  2   force =     6.02286727   -9.40476302   -7.53327028
     atom   49 type  2   force =    -6.23116197   -3.92961894   -7.44624947
     atom   50 type  2   force =    -8.76734427   13.08480771   -4.68632164
     atom   51 type  2   force =   -11.72435466    5.72457975    2.40292634
     atom   52 type  2   force =     7.90799903   -4.49240021    9.36919462
     atom   53 type  2   force =    -6.11963061   -5.26220376   10.66204006
     atom   54 type  2   force =    -6.04299673   -9.71273480    5.19908976
     atom   55 type  2   force =    -6.39207727    3.48410572  -13.78531255
     atom   56 type  2   force =     7.45271930   -4.17380221  -12.88634357
     atom   57 type  2   force =    10.88969966    8.67901310    0.98774864
     atom   58 type  2   force =     3.62598184   -6.68314890   10.40858173
     atom   59 type  2   force =     1.62482038  -14.93275835   -6.46378501
     atom   60 type  2   force =     2.41695522   10.77083755   -4.54201262
     atom   61 type  2   force =   -15.71219576   -3.19807936    0.47156229
     atom   62 type  2   force =    15.39706303   -0.92430340   -3.88070274
     atom   63 type  2   force =    -4.75688406    9.40748047    9.12482281
     atom   64 type  2   force =    -3.80127713    5.05589025   11.84274359
     atom   65 type  2   force =     8.11487755    6.29656366    9.31209526
     atom   66 type  2   force =    -8.84039758  -12.95246179   -1.99327285
     The core correction contribution to forces
     atom    1 type  1   force =     0.00000000    0.00000000    0.00000000
     atom    2 type  1   force =     0.00000000    0.00000000    0.00000000
     atom    3 type  1   force =     0.00000000    0.00000000    0.00000000
     atom    4 type  1   force =     0.00000000    0.00000000    0.00000000
     atom    5 type  1   force =     0.00000000    0.00000000    0.00000000
     atom    6 type  1   force =     0.00000000    0.00000000    0.00000000
     atom    7 type  1   force =     0.00000000    0.00000000    0.00000000
     atom    8 type  1   force =     0.00000000    0.00000000    0.00000000
     atom    9 type  1   force =     0.00000000    0.00000000    0.00000000
     atom   10 type  1   force =     0.00000000    0.00000000    0.00000000
     atom   11 type  1   force =     0.00000000    0.00000000    0.00000000
     atom   12 type  1   force =     0.00000000    0.00000000    0.00000000
     atom   13 type  1   force =     0.00000000    0.00000000    0.00000000
     atom   14 type  1   force =     0.00000000    0.00000000    0.00000000
     atom   15 type  1   force =     0.00000000    0.00000000    0.00000000
     atom   16 type  1   force =     0.00000000    0.00000000    0.00000000
     atom   17 type  1   force =     0.00000000    0.00000000    0.00000000
     atom   18 type  1   force =     0.00000000    0.00000000    0.00000000
     atom   19 type  1   force =     0.00000000    0.00000000    0.00000000
     atom   20 type  1   force =     0.00000000    0.00000000    0.00000000
     atom   21 type  1   force =     0.00000000    0.00000000    0.00000000
     atom   22 type  1   force =     0.00000000    0.00000000    0.00000000
     atom   23 type  1   force =     0.00000000    0.00000000    0.00000000
     atom   24 type  1   force =     0.00000000    0.00000000    0.00000000
     atom   25 type  1   force =     0.00000000    0.00000000    0.00000000
     atom   26 type  1   force =     0.00000000    0.00000000    0.00000000
     atom   27 type  1   force =     0.00000000    0.00000000    0.00000000
     atom   28 type  1   force =     0.00000000    0.00000000    0.00000000
     atom   29 type  1   force =     0.00000000    0.00000000    0.00000000
     atom   30 type  1   force =     0.00000000    0.00000000    0.00000000
     atom   31 type  1   force =     0.00000000    0.00000000    0.00000000
     atom   32 type  1   force =     0.00000000    0.00000000    0.00000000
     atom   33 type  1   force =     0.00000000    0.00000000    0.00000000
     atom   34 type  1   force =     0.00000000    0.00000000    0.00000000
     atom   35 type  1   force =     0.00000000    0.00000000    0.00000000
     atom   36 type  1   force =     0.00000000    0.00000000    0.00000000
     atom   37 type  1   force =     0.00000000    0.00000000    0.00000000
     atom   38 type  1   force =     0.00000000    0.00000000    0.00000000
     atom   39 type  1   force =     0.00000000    0.00000000    0.00000000
     atom   40 type  1   force =     0.00000000    0.00000000    0.00000000
     atom   41 type  1   force =     0.00000000    0.00000000    0.00000000
     atom   42 type  1   force =     0.00000000    0.00000000    0.00000000
     atom   43 type  1   force =     0.00000000    0.00000000    0.00000000
     atom   44 type  1   force =     0.00000000    0.00000000    0.00000000
     atom   45 type  2   force =     0.00818309   -0.00776839   -0.01414023
     atom   46 type  2   force =    -0.00730250    0.00697211    0.01306199
     atom   47 type  2   force =     0.01186306    0.00448229   -0.01331825
     atom   48 type  2   force =    -0.00363586   -0.00917864    0.01173559
     atom   49 type  2   force =     0.01541079    0.00430721   -0.01070981
     atom   50 type  2   force =    -0.00837057    0.00733760    0.01499512
     atom   51 type  2   force =     0.00041538   -0.01417430   -0.00902835
     atom   52 type  2   force =     0.01707373    0.00701316   -0.01071531
     atom   53 type  2   force =    -0.00089252    0.01600540    0.01578708
     atom   54 type  2   force =     0.00321773    0.00334252    0.01922056
     atom   55 type  2   force =    -0.00711207    0.01633206   -0.00677522
     atom   56 type  2   force =     0.00076364   -0.01945608    0.00024717
     atom   57 type  2   force =     0.00637623    0.00005081   -0.01973110
     atom   58 type  2   force =     0.01666824   -0.00645683    0.01389686
     atom   59 type  2   force =    -0.00910942   -0.01199189    0.01187531
     atom   60 type  2   force =    -0.00300758    0.00053683   -0.01700560
     atom   61 type  2   force =    -0.00064265   -0.02067660   -0.00740253
     atom   62 type  2   force =    -0.01847806   -0.00844500   -0.00494377
     atom   63 type  2   force =     0.00384426   -0.00535582   -0.01811847
     atom   64 type  2   force =     0.00682336    0.01802088   -0.01429133
     atom   65 type  2   force =    -0.01165483    0.01688810   -0.00831142
     atom   66 type  2   force =     0.00606053    0.01727560    0.00502470
     The Hubbard contrib.    to forces
     atom    1 type  1   force =     0.00000000    0.00000000    0.00000000
     atom    2 type  1   force =     0.00000000    0.00000000    0.00000000
     atom    3 type  1   force =     0.00000000    0.00000000    0.00000000
     atom    4 type  1   force =     0.00000000    0.00000000    0.00000000
     atom    5 type  1   force =     0.00000000    0.00000000    0.00000000
     atom    6 type  1   force =     0.00000000    0.00000000    0.00000000
     atom    7 type  1   force =     0.00000000    0.00000000    0.00000000
     atom    8 type  1   force =     0.00000000    0.00000000    0.00000000
     atom    9 type  1   force =     0.00000000    0.00000000    0.00000000
     atom   10 type  1   force =     0.00000000    0.00000000    0.00000000
     atom   11 type  1   force =     0.00000000    0.00000000    0.00000000
     atom   12 type  1   force =     0.00000000    0.00000000    0.00000000
     atom   13 type  1   force =     0.00000000    0.00000000    0.00000000
     atom   14 type  1   force =     0.00000000    0.00000000    0.00000000
     atom   15 type  1   force =     0.00000000    0.00000000    0.00000000
     atom   16 type  1   force =     0.00000000    0.00000000    0.00000000
     atom   17 type  1   force =     0.00000000    0.00000000    0.00000000
     atom   18 type  1   force =     0.00000000    0.00000000    0.00000000
     atom   19 type  1   force =     0.00000000    0.00000000    0.00000000
     atom   20 type  1   force =     0.00000000    0.00000000    0.00000000
     atom   21 type  1   force =     0.00000000    0.00000000    0.00000000
     atom   22 type  1   force =     0.00000000    0.00000000    0.00000000
     atom   23 type  1   force =     0.00000000    0.00000000    0.00000000
     atom   24 type  1   force =     0.00000000    0.00000000    0.00000000
     atom   25 type  1   force =     0.00000000    0.00000000    0.00000000
     atom   26 type  1   force =     0.00000000    0.00000000    0.00000000
     atom   27 type  1   force =     0.00000000    0.00000000    0.00000000
     atom   28 type  1   force =     0.00000000    0.00000000    0.00000000
     atom   29 type  1   force =     0.00000000    0.00000000    0.00000000
     atom   30 type  1   force =     0.00000000    0.00000000    0.00000000
     atom   31 type  1   force =     0.00000000    0.00000000    0.00000000
     atom   32 type  1   force =     0.00000000    0.00000000    0.00000000
     atom   33 type  1   force =     0.00000000    0.00000000    0.00000000
     atom   34 type  1   force =     0.00000000    0.00000000    0.00000000
     atom   35 type  1   force =     0.00000000    0.00000000    0.00000000
     atom   36 type  1   force =     0.00000000    0.00000000    0.00000000
     atom   37 type  1   force =     0.00000000    0.00000000    0.00000000
     atom   38 type  1   force =     0.00000000    0.00000000    0.00000000
     atom   39 type  1   force =     0.00000000    0.00000000    0.00000000
     atom   40 type  1   force =     0.00000000    0.00000000    0.00000000
     atom   41 type  1   force =     0.00000000    0.00000000    0.00000000
     atom   42 type  1   force =     0.00000000    0.00000000    0.00000000
     atom   43 type  1   force =     0.00000000    0.00000000    0.00000000
     atom   44 type  1   force =     0.00000000    0.00000000    0.00000000
     atom   45 type  2   force =     0.00000000    0.00000000    0.00000000
     atom   46 type  2   force =     0.00000000    0.00000000    0.00000000
     atom   47 type  2   force =     0.00000000    0.00000000    0.00000000
     atom   48 type  2   force =     0.00000000    0.00000000    0.00000000
     atom   49 type  2   force =     0.00000000    0.00000000    0.00000000
     atom   50 type  2   force =     0.00000000    0.00000000    0.00000000
     atom   51 type  2   force =     0.00000000    0.00000000    0.00000000
     atom   52 type  2   force =     0.00000000    0.00000000    0.00000000
     atom   53 type  2   force =     0.00000000    0.00000000    0.00000000
     atom   54 type  2   force =     0.00000000    0.00000000    0.00000000
     atom   55 type  2   force =     0.00000000    0.00000000    0.00000000
     atom   56 type  2   force =     0.00000000    0.00000000    0.00000000
     atom   57 type  2   force =     0.00000000    0.00000000    0.00000000
     atom   58 type  2   force =     0.00000000    0.00000000    0.00000000
     atom   59 type  2   force =     0.00000000    0.00000000    0.00000000
     atom   60 type  2   force =     0.00000000    0.00000000    0.00000000
     atom   61 type  2   force =     0.00000000    0.00000000    0.00000000
     atom   62 type  2   force =     0.00000000    0.00000000    0.00000000
     atom   63 type  2   force =     0.00000000    0.00000000    0.00000000
     atom   64 type  2   force =     0.00000000    0.00000000    0.00000000
     atom   65 type  2   force =     0.00000000    0.00000000    0.00000000
     atom   66 type  2   force =     0.00000000    0.00000000    0.00000000
     The SCF correction term to forces
     atom    1 type  1   force =    -0.00000021    0.00000029   -0.00000270
     atom    2 type  1   force =     0.00000097    0.00000220   -0.00000284
     atom    3 type  1   force =    -0.00000156   -0.00000404    0.00000265
     atom    4 type  1   force =    -0.00000186   -0.00000140    0.00000071
     atom    5 type  1   force =     0.00000243    0.00000150   -0.00000038
     atom    6 type  1   force =    -0.00000085    0.00000105   -0.00000541
     atom    7 type  1   force =    -0.00000342   -0.00000838   -0.00000059
     atom    8 type  1   force =    -0.00000060   -0.00000046    0.00000584
     atom    9 type  1   force =    -0.00000907    0.00000037    0.00000094
     atom   10 type  1   force =    -0.00000135   -0.00000569    0.00000430
     atom   11 type  1   force =    -0.00000337    0.00000165    0.00000008
     atom   12 type  1   force =    -0.00000156    0.00000247    0.00000022
     atom   13 type  1   force =    -0.00000269   -0.00000256   -0.00000002
     atom   14 type  1   force =     0.00000023   -0.00000730   -0.00000307
     atom   15 type  1   force =     0.00000448    0.00001542    0.00000127
     atom   16 type  1   force =     0.00001332   -0.00000897   -0.00000493
     atom   17 type  1   force =     0.00000076    0.00000481    0.00000261
     atom   18 type  1   force =    -0.00000006    0.00000054    0.00000031
     atom   19 type  1   force =     0.00000097    0.00000040   -0.00000130
     atom   20 type  1   force =    -0.00000555   -0.00000194   -0.00000053
     atom   21 type  1   force =    -0.00000013    0.00000126   -0.00000208
     atom   22 type  1   force =    -0.00000236    0.00000260   -0.00000053
     atom   23 type  1   force =     0.00000000   -0.00000241   -0.00000164
     atom   24 type  1   force =     0.00000116   -0.00000420   -0.00000211
     atom   25 type  1   force =     0.00000295   -0.00000572   -0.00000638
     atom   26 type  1   force =     0.00000421    0.00000529   -0.00000591
     atom   27 type  1   force =     0.00000004   -0.00000771    0.00000184
     atom   28 type  1   force =     0.00000338    0.00000275    0.00000481
     atom   29 type  1   force =    -0.00000022    0.00000038    0.00000029
     atom   30 type  1   force =     0.00000178   -0.00000222    0.00000024
     atom   31 type  1   force =    -0.00000023    0.00000162   -0.00000232
     atom   32 type  1   force =     0.00000042    0.00000199   -0.00000144
     atom   33 type  1   force =     0.00000362   -0.00000479    0.00000066
     atom   34 type  1   force =    -0.00000177   -0.00000211   -0.00000315
     atom   35 type  1   force =     0.00000089   -0.00000005   -0.00000059
     atom   36 type  1   force =     0.00000129   -0.00000111   -0.00000088
     atom   37 type  1   force =     0.00000634    0.00000310    0.00001480
     atom   38 type  1   force =    -0.00001528    0.00000121    0.00000966
     atom   39 type  1   force =     0.00000065   -0.00000443    0.00000387
     atom   40 type  1   force =    -0.00000401   -0.00000819    0.00000294
     atom   41 type  1   force =     0.00000103    0.00000064    0.00000230
     atom   42 type  1   force =     0.00000179    0.00000262    0.00000222
     atom   43 type  1   force =    -0.00000017    0.00000427   -0.00000057
     atom   44 type  1   force =    -0.00000087    0.00000137    0.00000571
     atom   45 type  2   force =     0.00001379    0.00002106   -0.00003298
     atom   46 type  2   force =    -0.00000759   -0.00001996    0.00000527
     atom   47 type  2   force =     0.00000479    0.00000279   -0.00000503
     atom   48 type  2   force =    -0.00000364   -0.00001341   -0.00000334
     atom   49 type  2   force =    -0.00000443   -0.00002748    0.00001815
     atom   50 type  2   force =    -0.00000887    0.00001796   -0.00000069
     atom   51 type  2   force =    -0.00004997   -0.00005007    0.00000937
     atom   52 type  2   force =     0.00003507   -0.00002526    0.00000155
     atom   53 type  2   force =    -0.00000557   -0.00000617    0.00001952
     atom   54 type  2   force =    -0.00001101   -0.00000126    0.00000034
     atom   55 type  2   force =    -0.00000957    0.00002002   -0.00002678
     atom   56 type  2   force =    -0.00000096   -0.00003622   -0.00000768
     atom   57 type  2   force =     0.00002571    0.00000494   -0.00004294
     atom   58 type  2   force =    -0.00000315   -0.00002659    0.00000132
     atom   59 type  2   force =     0.00000172   -0.00002243    0.00001029
     atom   60 type  2   force =    -0.00000100    0.00000441   -0.00001557
     atom   61 type  2   force =    -0.00000174   -0.00001205   -0.00003222
     atom   62 type  2   force =    -0.00000496   -0.00000105   -0.00001079
     atom   63 type  2   force =    -0.00002293    0.00001777    0.00003706
     atom   64 type  2   force =    -0.00000463   -0.00005907    0.00005540
     atom   65 type  2   force =     0.00000096    0.00002957    0.00003296
     atom   66 type  2   force =    -0.00000387    0.00002081    0.00002589

     Total force =     0.536435     Total SCF correction =     0.000183


     Computing stress (Cartesian axis) and pressure


     negative rho (up, down):  4.981E-01 0.000E+00
          total   stress  (Ry/bohr**3)                   (kbar)     P=       -2.98
  -0.00002009  -0.00000034   0.00000042           -2.96       -0.05        0.06
  -0.00000034  -0.00001984  -0.00000020           -0.05       -2.92       -0.03
   0.00000042  -0.00000020  -0.00002084            0.06       -0.03       -3.07


     init_run     :      7.47s CPU      7.89s WALL (       1 calls)
     electrons    :     82.19s CPU     87.94s WALL (       1 calls)
     forces       :      5.71s CPU      6.01s WALL (       1 calls)
     stress       :     16.73s CPU     17.03s WALL (       1 calls)

     Called by init_run:
     wfcinit      :      2.75s CPU      2.92s WALL (       1 calls)
     potinit      :      1.29s CPU      1.35s WALL (       1 calls)
     hinit0       :      0.99s CPU      1.06s WALL (       1 calls)

     Called by electrons:
     c_bands      :     55.30s CPU     58.29s WALL (      11 calls)
     sum_band     :     14.97s CPU     16.34s WALL (      11 calls)
     v_of_rho     :      7.14s CPU      7.68s WALL (      12 calls)
     newd         :      3.19s CPU      4.06s WALL (      12 calls)
     PAW_pot      :      1.17s CPU      1.18s WALL (      12 calls)
     mix_rho      :      1.15s CPU      1.24s WALL (      11 calls)

     Called by c_bands:
     init_us_2    :      0.73s CPU      0.75s WALL (      23 calls)
     init_us_2:cp :      0.73s CPU      0.75s WALL (      23 calls)
     regterg      :     54.30s CPU     57.28s WALL (      11 calls)

     Called by *egterg:
     rdiaghg      :      0.26s CPU      0.26s WALL (      35 calls)
     h_psi        :     48.39s CPU     50.92s WALL (      36 calls)
     s_psi        :      1.52s CPU      1.53s WALL (      36 calls)
     g_psi        :      0.15s CPU      0.15s WALL (      24 calls)

     Called by h_psi:
     h_psi:calbec :      1.53s CPU      1.54s WALL (      36 calls)
     vloc_psi     :     44.94s CPU     47.44s WALL (      36 calls)
     add_vuspsi   :      1.53s CPU      1.53s WALL (      36 calls)

     General routines
     calbec       :      2.25s CPU      2.29s WALL (      52 calls)
     fft          :      3.92s CPU      4.48s WALL (     128 calls)
     ffts         :      0.27s CPU      0.30s WALL (      11 calls)
     fftw         :     39.95s CPU     42.75s WALL (    3178 calls)

     Parallel routines

     PWSCF        :   1m52.20s CPU   1m59.05s WALL


   This run was terminated on:  22:27:11  27Mar2024            

=------------------------------------------------------------------------------=
   JOB DONE.
=------------------------------------------------------------------------------=
