
     Program PWSCF v.7.2 starts on 27Mar2024 at 22:23:20 

     This program is part of the open-source Quantum ESPRESSO suite
     for quantum simulation of materials; please cite
         "P. Giannozzi et al., J. Phys.:Condens. Matter 21 395502 (2009);
         "P. Giannozzi et al., J. Phys.:Condens. Matter 29 465901 (2017);
         "P. Giannozzi et al., J. Chem. Phys. 152 154105 (2020);
          URL http://www.quantum-espresso.org", 
     in publications or presentations arising from this work. More details at
     http://www.quantum-espresso.org/quote

     Parallel version (MPI), running on    32 processors

     MPI processes distributed on     1 nodes
     175116 MiB available memory on the printing compute node when the environment starts

     Reading input from pw-wt-394.in
Warning: card &CELL ignored
Warning: card / ignored

     Current dimensions of program PWSCF are:
     Max number of different atomic species (ntypx) = 10
     Max number of k-points (npk) =  40000
     Max angular momentum in pseudopotentials (lmaxx) =  4
     file O.pbe-n-kjpaw_psl.0.1.UPF: wavefunction(s)  2P renormalized

     IMPORTANT: XC functional enforced from input :
     Exchange-correlation= PBE
                           (   1   4   3   4   0   0   0)
     Any further DFT definition will be discarded
     Please, verify this is what you really want


     gamma-point specific algorithms are used

     R & G space division:  proc/nbgrp/npool/nimage =      32
     Subspace diagonalization in iterative solution of the eigenvalue problem:
     a serial algorithm will be used


     Parallelization info
     --------------------
     sticks:   dense  smooth     PW     G-vecs:    dense   smooth      PW
     Min        1707    1707    426               301015   301015   37634
     Max        1710    1710    428               301034   301034   37648
     Sum       54693   54693  13673              9632757  9632757 1204469

     Using Slab Decomposition



     bravais-lattice index     =            0
     lattice parameter (alat)  =      75.7119  a.u.
     unit-cell volume          =  434002.3113 (a.u.)^3
     number of atoms/cell      =           66
     number of atomic types    =            2
     number of electrons       =       176.00
     number of Kohn-Sham states=           88
     kinetic-energy cutoff     =      30.0000  Ry
     charge density cutoff     =     120.0000  Ry
     scf convergence threshold =      1.0E-06
     mixing beta               =       0.5000
     number of iterations used =            8  plain     mixing
     Exchange-correlation= PBE
                           (   1   4   3   4   0   0   0)

     celldm(1)=  75.711877  celldm(2)=   0.000000  celldm(3)=   0.000000
     celldm(4)=   0.000000  celldm(5)=   0.000000  celldm(6)=   0.000000

     crystal axes: (cart. coord. in units of alat)
               a(1) = (   1.000000   0.000000   0.000000 )  
               a(2) = (   0.000000   1.000000   0.000000 )  
               a(3) = (   0.000000   0.000000   1.000000 )  

     reciprocal axes: (cart. coord. in units 2 pi/alat)
               b(1) = (  1.000000  0.000000  0.000000 )  
               b(2) = (  0.000000  1.000000  0.000000 )  
               b(3) = (  0.000000  0.000000  1.000000 )  


     PseudoPot. # 1 for H  read from file:
     /share/pfaendtnergroup/rverma7/QE_PP/H.pbe-rrkjus_psl.1.0.0.UPF
     MD5 check sum: f52b6d4d1c606e5624b1dc7b2218f220
     Pseudo is Ultrasoft, Zval =  1.0
     Generated using "atomic" code by A. Dal Corso  v.5.1
     Using radial grid of  929 points,  2 beta functions with: 
                l(1) =   0
                l(2) =   0
     Q(r) pseudized with 0 coefficients 


     PseudoPot. # 2 for O  read from file:
     /share/pfaendtnergroup/rverma7/QE_PP/O.pbe-n-kjpaw_psl.0.1.UPF
     MD5 check sum: 0234752ac141de4415c5fc33072bef88
     Pseudo is Projector augmented-wave + core cor, Zval =  6.0
     Generated using "atomic" code by A. Dal Corso  v.5.0.99 svn rev. 10869
     Shape of augmentation charge: BESSEL
     Using radial grid of 1095 points,  4 beta functions with: 
                l(1) =   0
                l(2) =   0
                l(3) =   1
                l(4) =   1
     Q(r) pseudized with 0 coefficients 


     atomic species   valence    mass     pseudopotential
        H              1.00     1.00800     H ( 1.00)
        O              6.00    15.99900     O ( 1.00)

     No symmetry found



   Cartesian axes

     site n.     atom                  positions (alat units)
         1           H   tau(   1) = (   0.2713590   0.2134032   0.5081493  )
         2           H   tau(   2) = (   0.2444028   0.2016972   0.5322102  )
         3           H   tau(   3) = (   0.2870585   0.2665169   0.3516785  )
         4           H   tau(   4) = (   0.2766255   0.2342444   0.3742668  )
         5           H   tau(   5) = (   0.2561587   0.1871209   0.3763385  )
         6           H   tau(   6) = (   0.2867091   0.1823537   0.4016224  )
         7           H   tau(   7) = (   0.2732560   0.3209285   0.4346936  )
         8           H   tau(   8) = (   0.2677150   0.2856608   0.4113316  )
         9           H   tau(   9) = (   0.3066517   0.2692375   0.4420567  )
        10           H   tau(  10) = (   0.3354549   0.2485960   0.4570573  )
        11           H   tau(  11) = (   0.3983527   0.2155497   0.4178959  )
        12           H   tau(  12) = (   0.4136279   0.1752153   0.4191189  )
        13           H   tau(  13) = (   0.3785349   0.2570323   0.3802820  )
        14           H   tau(  14) = (   0.3539748   0.2435293   0.4079621  )
        15           H   tau(  15) = (   0.2321727   0.2533134   0.3253463  )
        16           H   tau(  16) = (   0.2169225   0.2320729   0.2949956  )
        17           H   tau(  17) = (   0.3581680   0.2615999   0.2824161  )
        18           H   tau(  18) = (   0.3966305   0.2726819   0.2772495  )
        19           H   tau(  19) = (   0.3449145   0.2867341   0.3210533  )
        20           H   tau(  20) = (   0.3080744   0.2962186   0.3084488  )
        21           H   tau(  21) = (   0.3546237   0.2063397   0.5057532  )
        22           H   tau(  22) = (   0.3712966   0.2034194   0.4678148  )
        23           H   tau(  23) = (   0.2500187   0.2665918   0.4630226  )
        24           H   tau(  24) = (   0.2367403   0.2624236   0.4988643  )
        25           H   tau(  25) = (   0.1702234   0.2003994   0.4295021  )
        26           H   tau(  26) = (   0.1298390   0.2028703   0.4335205  )
        27           H   tau(  27) = (   0.3012355   0.2571821   0.2669412  )
        28           H   tau(  28) = (   0.2650693   0.2694372   0.2812430  )
        29           H   tau(  29) = (   0.3048796   0.3749407   0.4430051  )
        30           H   tau(  30) = (   0.3053039   0.3476351   0.4103082  )
        31           H   tau(  31) = (   0.3123175   0.1951579   0.4496443  )
        32           H   tau(  32) = (   0.2895794   0.1676276   0.4691127  )
        33           H   tau(  33) = (   0.3867715   0.3163110   0.3637839  )
        34           H   tau(  34) = (   0.3975290   0.2917759   0.3374017  )
        35           H   tau(  35) = (   0.2242107   0.2194933   0.4581305  )
        36           H   tau(  36) = (   0.2356171   0.1840260   0.4441283  )
        37           H   tau(  37) = (   0.3556720   0.2036441   0.3588169  )
        38           H   tau(  38) = (   0.3165606   0.1926869   0.3596905  )
        39           H   tau(  39) = (   0.3317858   0.2134531   0.3021091  )
        40           H   tau(  40) = (   0.3433670   0.2101835   0.2624485  )
        41           H   tau(  41) = (   0.1900661   0.1953326   0.3675777  )
        42           H   tau(  42) = (   0.2102334   0.2057157   0.3996256  )
        43           H   tau(  43) = (   0.3254711   0.2971421   0.4073630  )
        44           H   tau(  44) = (   0.3225009   0.3103457   0.3694746  )
        45           O   tau(  45) = (   0.2689629   0.1981031   0.5271933  )
        46           O   tau(  46) = (   0.2724573   0.2607263   0.3707226  )
        47           O   tau(  47) = (   0.2805192   0.1942094   0.3801822  )
        48           O   tau(  48) = (   0.2686135   0.2951204   0.4350680  )
        49           O   tau(  49) = (   0.3297392   0.2638462   0.4372644  )
        50           O   tau(  50) = (   0.4055660   0.1946587   0.4328466  )
        51           O   tau(  51) = (   0.3736428   0.2354674   0.3929365  )
        52           O   tau(  52) = (   0.2298265   0.2523649   0.2993885  )
        53           O   tau(  53) = (   0.3752652   0.2794459   0.2889055  )
        54           O   tau(  54) = (   0.3229502   0.2977661   0.3293897  )
        55           O   tau(  55) = (   0.3511045   0.2122301   0.4802945  )
        56           O   tau(  56) = (   0.2462748   0.2485960   0.4805441  )
        57           O   tau(  57) = (   0.1488581   0.2037938   0.4180956  )
        58           O   tau(  58) = (   0.2879820   0.2781231   0.2744041  )
        59           O   tau(  59) = (   0.2903282   0.3589667   0.4288282  )
        60           O   tau(  60) = (   0.2908024   0.1810558   0.4483464  )
        61           O   tau(  61) = (   0.3948833   0.2926994   0.3626607  )
        62           O   tau(  62) = (   0.2156246   0.1990515   0.4447273  )
        63           O   tau(  63) = (   0.3360539   0.1977537   0.3427181  )
        64           O   tau(  64) = (   0.3313116   0.2243355   0.2787221  )
        65           O   tau(  65) = (   0.2142768   0.1969549   0.3759141  )
        66           O   tau(  66) = (   0.3286659   0.3184325   0.3928866  )

     number of k points=     1
                       cart. coord. in units 2pi/alat
        k(    1) = (   0.0000000   0.0000000   0.0000000), wk =   2.0000000

     Dense  grid:  4816379 G-vectors     FFT dimensions: ( 270, 270, 270)

     Estimated max dynamical RAM per process >     612.29 MB

     Estimated total dynamical RAM >      19.13 GB

     Check: negative core charge=   -0.000006

     Initial potential from superposition of free atoms

     starting charge     175.9995, renormalised to     176.0000

     negative rho (up, down):  3.761E-01 0.000E+00
     Starting wfcs are  132 randomized atomic wfcs
     Checking if some PAW data can be deallocated... 

     total cpu time spent up to now is        9.8 secs

     Self-consistent Calculation

     iteration #  1     ecut=    30.00 Ry     beta= 0.50
     Davidson diagonalization with overlap
     ethr =  1.00E-02,  avg # of iterations =  2.0

     negative rho (up, down):  4.441E-01 0.000E+00

     total cpu time spent up to now is       17.9 secs

     total energy              =    -965.79427953 Ry
     estimated scf accuracy    <       6.89468182 Ry

     iteration #  2     ecut=    30.00 Ry     beta= 0.50
     Davidson diagonalization with overlap
     ethr =  3.92E-03,  avg # of iterations =  2.0

     negative rho (up, down):  4.642E-01 0.000E+00

     total cpu time spent up to now is       26.1 secs

     total energy              =    -967.73796986 Ry
     estimated scf accuracy    <       1.04578669 Ry

     iteration #  3     ecut=    30.00 Ry     beta= 0.50
     Davidson diagonalization with overlap
     ethr =  5.94E-04,  avg # of iterations =  2.0

     negative rho (up, down):  5.094E-01 0.000E+00

     total cpu time spent up to now is       33.5 secs

     total energy              =    -967.79544658 Ry
     estimated scf accuracy    <       0.13297577 Ry

     iteration #  4     ecut=    30.00 Ry     beta= 0.50
     Davidson diagonalization with overlap
     ethr =  7.56E-05,  avg # of iterations =  3.0

     negative rho (up, down):  5.096E-01 0.000E+00

     total cpu time spent up to now is       42.2 secs

     total energy              =    -967.82013994 Ry
     estimated scf accuracy    <       0.04338804 Ry

     iteration #  5     ecut=    30.00 Ry     beta= 0.50
     Davidson diagonalization with overlap
     ethr =  2.47E-05,  avg # of iterations =  2.0

     negative rho (up, down):  5.085E-01 0.000E+00

     total cpu time spent up to now is       49.1 secs

     total energy              =    -967.82062833 Ry
     estimated scf accuracy    <       0.00867907 Ry

     iteration #  6     ecut=    30.00 Ry     beta= 0.50
     Davidson diagonalization with overlap
     ethr =  4.93E-06,  avg # of iterations =  2.0

     negative rho (up, down):  5.076E-01 0.000E+00

     total cpu time spent up to now is       56.1 secs

     total energy              =    -967.82089593 Ry
     estimated scf accuracy    <       0.00177000 Ry

     iteration #  7     ecut=    30.00 Ry     beta= 0.50
     Davidson diagonalization with overlap
     ethr =  1.01E-06,  avg # of iterations =  2.0

     negative rho (up, down):  5.072E-01 0.000E+00

     total cpu time spent up to now is       64.0 secs

     total energy              =    -967.82108499 Ry
     estimated scf accuracy    <       0.00018572 Ry

     iteration #  8     ecut=    30.00 Ry     beta= 0.50
     Davidson diagonalization with overlap
     ethr =  1.06E-07,  avg # of iterations =  2.0

     negative rho (up, down):  5.072E-01 0.000E+00

     total cpu time spent up to now is       72.3 secs

     total energy              =    -967.82115432 Ry
     estimated scf accuracy    <       0.00001943 Ry

     iteration #  9     ecut=    30.00 Ry     beta= 0.50
     Davidson diagonalization with overlap
     ethr =  1.10E-08,  avg # of iterations =  2.0

     negative rho (up, down):  5.073E-01 0.000E+00

     total cpu time spent up to now is       79.3 secs

     total energy              =    -967.82114939 Ry
     estimated scf accuracy    <       0.00001620 Ry

     iteration # 10     ecut=    30.00 Ry     beta= 0.50
     Davidson diagonalization with overlap
     ethr =  9.20E-09,  avg # of iterations =  2.0

     negative rho (up, down):  5.074E-01 0.000E+00

     total cpu time spent up to now is       87.1 secs

     End of self-consistent calculation

          k = 0.0000 0.0000 0.0000 (602235 PWs)   bands (ev):

   -26.0255 -25.8967 -25.7201 -25.6461 -25.6100 -25.4444 -25.3955 -25.3194
   -25.2869 -25.2768 -25.1787 -24.9126 -24.8247 -24.7797 -24.6418 -24.4189
   -24.2320 -24.1032 -24.0910 -24.0267 -23.9310 -23.8060 -13.8859 -13.6001
   -13.5215 -13.4814 -13.3855 -13.3311 -13.2312 -13.2047 -13.0019 -12.9820
   -12.7924 -12.7391 -12.6153 -12.5238 -12.4880 -12.3923 -12.3007 -12.1645
   -12.1374 -12.0242 -11.8748 -11.6578 -11.1469 -10.9703 -10.7198 -10.4424
   -10.3419 -10.0250  -9.9603  -9.9242  -9.8175  -9.6931  -9.6317  -9.5110
    -9.4202  -9.2985  -9.1197  -8.9773  -8.7912  -8.6047  -8.4468  -8.3539
    -8.1763  -8.1360  -8.0213  -7.9986  -7.9372  -7.8790  -7.7336  -7.6430
    -7.6232  -7.6166  -7.4709  -7.3700  -7.3254  -7.2477  -7.2328  -7.2129
    -6.9033  -6.8620  -6.7140  -6.7006  -6.6656  -6.6363  -6.5362  -6.3270

     highest occupied level (ev):    -6.3270

!    total energy              =    -967.82115078 Ry
     estimated scf accuracy    <       0.00000089 Ry

     The total energy is the sum of the following terms:
     one-electron contribution =   -5823.03805871 Ry
     hartree contribution      =    2946.08227004 Ry
     xc contribution           =    -193.43831772 Ry
     ewald contribution        =    2311.90372592 Ry
     one-center paw contrib.   =    -209.33077032 Ry

     convergence has been achieved in  10 iterations

     negative rho (up, down):  5.074E-01 0.000E+00

     Forces acting on atoms (cartesian axes, Ry/au):

     atom    1 type  1   force =     0.00359192    0.00649887   -0.00649476
     atom    2 type  1   force =     0.05442486   -0.01634893   -0.00458229
     atom    3 type  1   force =     0.00899462    0.00690144    0.00925200
     atom    4 type  1   force =    -0.01240830    0.09338145   -0.00548332
     atom    5 type  1   force =     0.03033130    0.01656522   -0.00502423
     atom    6 type  1   force =    -0.01188304    0.02280363   -0.01537346
     atom    7 type  1   force =    -0.00348252   -0.05016989   -0.00169919
     atom    8 type  1   force =     0.00046472    0.02694880    0.02587843
     atom    9 type  1   force =    -0.05289723    0.02578980   -0.00377878
     atom   10 type  1   force =     0.00947563    0.02959448   -0.03186631
     atom   11 type  1   force =     0.01724808   -0.07310078    0.01091605
     atom   12 type  1   force =    -0.02337491    0.05270221    0.01667213
     atom   13 type  1   force =     0.00879561   -0.01921913    0.01363581
     atom   14 type  1   force =     0.03911255   -0.01747267   -0.03297085
     atom   15 type  1   force =    -0.00347548   -0.00623440   -0.07982845
     atom   16 type  1   force =     0.00325399    0.00093097    0.00204098
     atom   17 type  1   force =     0.02888301    0.00924206    0.00532231
     atom   18 type  1   force =    -0.04828378    0.01115855    0.02449709
     atom   19 type  1   force =    -0.06601963    0.04269932    0.03225930
     atom   20 type  1   force =     0.01584762   -0.00573301    0.02084002
     atom   21 type  1   force =    -0.01135742    0.02455527   -0.11098747
     atom   22 type  1   force =    -0.00958761    0.00277377    0.01325873
     atom   23 type  1   force =     0.01530660   -0.00197800   -0.00153748
     atom   24 type  1   force =     0.00566279   -0.02087516   -0.01394710
     atom   25 type  1   force =    -0.00449560   -0.00654234    0.02942957
     atom   26 type  1   force =     0.02477643   -0.00272930    0.00384628
     atom   27 type  1   force =    -0.04166183    0.05307297    0.03406056
     atom   28 type  1   force =     0.03413840    0.00278459   -0.01150154
     atom   29 type  1   force =    -0.04396967   -0.06402112   -0.05386729
     atom   30 type  1   force =    -0.00736428    0.01956038    0.04333461
     atom   31 type  1   force =    -0.05474273   -0.04424480    0.02118788
     atom   32 type  1   force =     0.01435039    0.01552003   -0.01425629
     atom   33 type  1   force =    -0.00325085   -0.03129220    0.02631853
     atom   34 type  1   force =    -0.00418118   -0.01968401    0.04513744
     atom   35 type  1   force =    -0.01268845   -0.03833208   -0.01906083
     atom   36 type  1   force =    -0.02532675    0.02407984    0.00109575
     atom   37 type  1   force =    -0.05912624   -0.00062750   -0.04803887
     atom   38 type  1   force =     0.04332673    0.01813106   -0.06589309
     atom   39 type  1   force =     0.00697515    0.00359367   -0.02165533
     atom   40 type  1   force =    -0.01223805    0.00088563    0.02552777
     atom   41 type  1   force =     0.07020573   -0.00318893    0.01826477
     atom   42 type  1   force =     0.02236701   -0.02036090   -0.03175223
     atom   43 type  1   force =     0.02143274    0.07055639   -0.03970107
     atom   44 type  1   force =     0.01132245    0.01465757    0.01874462
     atom   45 type  2   force =    -0.05671620    0.00738498    0.00835124
     atom   46 type  2   force =    -0.00009834   -0.08536734    0.00772684
     atom   47 type  2   force =    -0.02719617   -0.04823598    0.03016055
     atom   48 type  2   force =    -0.00689937    0.00489382   -0.02329984
     atom   49 type  2   force =     0.04609965   -0.06185538    0.05135981
     atom   50 type  2   force =    -0.00364850    0.01814572   -0.01628748
     atom   51 type  2   force =    -0.04735151    0.04217233    0.01367177
     atom   52 type  2   force =     0.00029033    0.00607149    0.08904319
     atom   53 type  2   force =     0.02928719   -0.03477091   -0.03587953
     atom   54 type  2   force =     0.03583346   -0.03632420   -0.04993134
     atom   55 type  2   force =     0.02707852   -0.03057241    0.07805624
     atom   56 type  2   force =    -0.01706894    0.03829858    0.00773405
     atom   57 type  2   force =    -0.01787076    0.00596805   -0.02901579
     atom   58 type  2   force =     0.00445817   -0.04838084   -0.01879654
     atom   59 type  2   force =     0.04946606    0.03496900    0.00879576
     atom   60 type  2   force =     0.04267183    0.02324943   -0.00143634
     atom   61 type  2   force =     0.00909279    0.04543335   -0.07447371
     atom   62 type  2   force =     0.03089328    0.02198537    0.01921097
     atom   63 type  2   force =     0.01689790   -0.00533493    0.08497573
     atom   64 type  2   force =     0.01630274   -0.00695149    0.00569083
     atom   65 type  2   force =    -0.08986644    0.01806719    0.01134095
     atom   66 type  2   force =    -0.02012848   -0.06207865    0.01078228
     The non-local contrib.  to forces
     atom    1 type  1   force =    -0.01266483   -0.06741084    0.08445427
     atom    2 type  1   force =     0.09239647   -0.01176979   -0.02082334
     atom    3 type  1   force =    -0.06208641   -0.02716451    0.08147612
     atom    4 type  1   force =    -0.00963580    0.06857369   -0.01069139
     atom    5 type  1   force =     0.08633087    0.02349098    0.01545969
     atom    6 type  1   force =    -0.02519214    0.04517493   -0.08263539
     atom    7 type  1   force =    -0.01370348   -0.07943733   -0.00175846
     atom    8 type  1   force =     0.00374774    0.03674415    0.08520147
     atom    9 type  1   force =     0.10802428   -0.02745460   -0.02153424
     atom   10 type  1   force =    -0.02197038    0.05401673   -0.07011413
     atom   11 type  1   force =     0.01982348   -0.05961925    0.03820093
     atom   12 type  1   force =    -0.03241435    0.07725482    0.05029077
     atom   13 type  1   force =    -0.01873648   -0.07779831    0.04668463
     atom   14 type  1   force =     0.06410523   -0.02559540   -0.04915714
     atom   15 type  1   force =    -0.00939318   -0.00589907   -0.08673304
     atom   16 type  1   force =     0.05804623    0.09016325    0.02253273
     atom   17 type  1   force =     0.06381449    0.06264766    0.02188134
     atom   18 type  1   force =    -0.08258849    0.02299553    0.04399119
     atom   19 type  1   force =    -0.07466960    0.03584395    0.02651597
     atom   20 type  1   force =     0.05199942    0.00422144    0.07130804
     atom   21 type  1   force =    -0.00869933    0.01730304   -0.08050722
     atom   22 type  1   force =    -0.07633106    0.03281823    0.05072818
     atom   23 type  1   force =    -0.01487348   -0.06568557    0.06602324
     atom   24 type  1   force =     0.03909989   -0.05625735   -0.07700168
     atom   25 type  1   force =    -0.09810094    0.01482999   -0.04706574
     atom   26 type  1   force =     0.08681141    0.00327313   -0.06400096
     atom   27 type  1   force =    -0.04711964    0.06997618    0.02593655
     atom   28 type  1   force =     0.08509216    0.02935231   -0.02518855
     atom   29 type  1   force =    -0.04711814   -0.05576517   -0.04935860
     atom   30 type  1   force =    -0.04156717    0.03419723    0.05599941
     atom   31 type  1   force =    -0.07552392   -0.05100312   -0.00254509
     atom   32 type  1   force =     0.00823007    0.05788678   -0.08783936
     atom   33 type  1   force =     0.03330742   -0.09609979   -0.00659463
     atom   34 type  1   force =    -0.01012548    0.00495673    0.09477283
     atom   35 type  1   force =    -0.02657058   -0.06854439   -0.04469460
     atom   36 type  1   force =    -0.08030560    0.06188141    0.00309194
     atom   37 type  1   force =    -0.06568228   -0.01997133   -0.05240404
     atom   38 type  1   force =     0.06001054    0.01599346   -0.04946329
     atom   39 type  1   force =     0.00040577    0.03461689   -0.08096010
     atom   40 type  1   force =    -0.05028815    0.05835191    0.07174682
     atom   41 type  1   force =     0.08621524    0.00581081    0.03047168
     atom   42 type  1   force =     0.01251965   -0.03142453   -0.08533324
     atom   43 type  1   force =     0.00918919    0.07068771   -0.05040943
     atom   44 type  1   force =     0.02125272    0.02716457    0.08485581
     atom   45 type  2   force =    -1.64019661    1.37956611   -1.07435955
     atom   46 type  2   force =     1.23828817   -1.03802150   -1.07014488
     atom   47 type  2   force =    -0.94520029   -1.12635528    1.09629654
     atom   48 type  2   force =     0.17394875    0.72314634   -1.42688435
     atom   49 type  2   force =    -1.15939251   -0.73922158    1.39536972
     atom   50 type  2   force =     0.06315628   -0.28114409   -1.86643009
     atom   51 type  2   force =    -0.77430134    1.67009174    0.21754153
     atom   52 type  2   force =    -0.71869461   -1.52671547    1.39101174
     atom   53 type  2   force =     0.49448384   -1.73700556   -1.11050052
     atom   54 type  2   force =     0.45005960   -0.82641503   -1.57936414
     atom   55 type  2   force =     1.51963437   -0.94496526    0.86159253
     atom   56 type  2   force =    -0.61638997    1.98029268    0.20318190
     atom   57 type  2   force =     0.10989703   -0.35016686    2.16170846
     atom   58 type  2   force =    -0.53629434   -1.91080418    0.12149500
     atom   59 type  2   force =     1.90456383    0.31193786    0.05618969
     atom   60 type  2   force =     1.36629083   -0.10191752    1.51705005
     atom   61 type  2   force =    -0.47684474    1.48535281   -1.64752536
     atom   62 type  2   force =     1.85241720    0.22760574    0.59094314
     atom   63 type  2   force =     0.11296825    0.14997407    1.84270097
     atom   64 type  2   force =     1.05112281   -1.60855849    0.16560928
     atom   65 type  2   force =    -1.80749150    0.36088148    0.87084408
     atom   66 type  2   force =    -0.80565737   -1.70852820   -0.43581797
     The ionic contribution  to forces
     atom    1 type  1   force =     0.37522227    1.40717014   -0.05916032
     atom    2 type  1   force =    -3.86948168   -0.28252926    2.86931035
     atom    3 type  1   force =     0.79279879    1.24990088   -3.19213858
     atom    4 type  1   force =    -0.51740547   -1.93440580   -0.30540681
     atom    5 type  1   force =    -3.01851384   -2.96941175   -1.37798687
     atom    6 type  1   force =     0.73375350   -3.65748830    2.05886416
     atom    7 type  1   force =    -1.03477179    4.03591390    1.25404421
     atom    8 type  1   force =    -1.80433999    0.39048689   -2.11762539
     atom    9 type  1   force =    -2.47747388    1.24264421    2.34143953
     atom   10 type  1   force =     1.57779230   -0.81146089    3.91438004
     atom   11 type  1   force =     2.13993311    0.99787574   -0.50308335
     atom   12 type  1   force =     2.87517048   -4.01041329   -1.46983577
     atom   13 type  1   force =     2.55522366    2.03156196   -1.33043340
     atom   14 type  1   force =    -0.36017790    0.35730282    1.66918250
     atom   15 type  1   force =    -1.73487199    0.52358465    1.59103581
     atom   16 type  1   force =    -3.45890775   -3.24294441   -2.26203342
     atom   17 type  1   force =    -0.28744276   -1.53328769   -2.81696853
     atom   18 type  1   force =     4.53086176   -0.47158842   -3.12940975
     atom   19 type  1   force =     2.85598658    0.07277005   -1.72230387
     atom   20 type  1   force =    -1.79556626    1.93068376   -3.35259001
     atom   21 type  1   force =     1.47905102   -1.17334582    4.91038618
     atom   22 type  1   force =     3.71437472   -1.95095521    0.39773202
     atom   23 type  1   force =    -1.09858897    2.76292179   -0.21050834
     atom   24 type  1   force =    -2.51358004    2.75697577    4.46626775
     atom   25 type  1   force =     0.32769149   -0.98024633    1.94086003
     atom   26 type  1   force =    -4.58417048   -0.37460019    2.48034862
     atom   27 type  1   force =     0.77188290   -1.90971850   -3.52774530
     atom   28 type  1   force =    -3.35890071   -0.10069738   -1.51135261
     atom   29 type  1   force =     1.77043618    4.07595801    2.65465900
     atom   30 type  1   force =     1.16054734    2.01966503   -1.39669902
     atom   31 type  1   force =     2.68568277   -0.12383152    0.99278242
     atom   32 type  1   force =    -0.12653955   -4.06954709    3.88097437
     atom   33 type  1   force =     1.06557022    4.92190610    0.07590908
     atom   34 type  1   force =     2.82898142    0.85475559   -3.55334470
     atom   35 type  1   force =    -1.19882791    1.60707502    2.33634239
     atom   36 type  1   force =     1.01298411   -3.75170945    0.82475074
     atom   37 type  1   force =     3.55357904   -1.31938617    0.64496828
     atom   38 type  1   force =    -0.95398671   -2.67071006    0.45111732
     atom   39 type  1   force =     0.48088385   -2.48263148    0.37477541
     atom   40 type  1   force =     2.27199505   -3.14010728   -4.34293914
     atom   41 type  1   force =    -4.65769525   -1.14202368   -2.21526792
     atom   42 type  1   force =    -2.17705968    0.55310506    1.85477747
     atom   43 type  1   force =     0.58808436   -0.30193725    1.85208215
     atom   44 type  1   force =    -0.44247314    1.48046358   -2.55115259
     atom   45 type  2   force =     1.05615125   -7.09920643   15.35250471
     atom   46 type  2   force =    -9.72123570    5.39710889   -1.93159143
     atom   47 type  2   force =    -0.61876995  -10.07423990   -5.06581566
     atom   48 type  2   force =    -8.54463561    8.21182654    8.53533215
     atom   49 type  2   force =     7.87591888    5.04005876    7.22956382
     atom   50 type  2   force =    12.79932314   -7.16943744    6.86603864
     atom   51 type  2   force =    12.78695936   -5.46155114   -0.54359668
     atom   52 type  2   force =   -10.01569098    2.77720842  -10.85594235
     atom   53 type  2   force =    10.12361836    6.75405585   -9.73126686
     atom   54 type  2   force =     0.07118732   11.68418713   -4.78309377
     atom   55 type  2   force =     5.25584424   -2.45130376   11.67075047
     atom   56 type  2   force =    -6.06193799    1.23315158   11.16112141
     atom   57 type  2   force =   -13.39400103   -1.19256677   -2.62190285
     atom   58 type  2   force =    -3.39702570    8.54378754  -14.37171974
     atom   59 type  2   force =    -5.21036287   15.21566930    4.82744668
     atom   60 type  2   force =    -1.26604755  -12.22784885    3.64633495
     atom   61 type  2   force =    15.36987928    4.93791347    1.23917792
     atom   62 type  2   force =   -12.64709547   -6.67344206    5.36560330
     atom   63 type  2   force =     5.64323070  -11.93338610   -9.33649674
     atom   64 type  2   force =     1.23868838   -5.09660339  -13.45654055
     atom   65 type  2   force =    -8.32915092   -7.27021619   -7.69128056
     atom   66 type  2   force =     6.30744170   15.98709084    1.60636899
     The local contribution  to forces
     atom    1 type  1   force =    -0.35900829   -1.33323574   -0.03181080
     atom    2 type  1   force =     3.83143057    0.27796185   -2.85305916
     atom    3 type  1   force =    -0.72172893   -1.21584979    3.11990856
     atom    4 type  1   force =     0.51461910    1.95919906    0.31061550
     atom    5 type  1   force =     2.96248522    2.96247982    1.35751672
     atom    6 type  1   force =    -0.72047185    3.63511000   -1.99159874
     atom    7 type  1   force =     1.04498330   -4.00660706   -1.25399394
     atom    8 type  1   force =     1.80104146   -0.40029444    2.05826577
     atom    9 type  1   force =     2.31649823   -1.18940220   -2.32367304
     atom   10 type  1   force =    -1.54638733    0.78702161   -3.87610375
     atom   11 type  1   force =    -2.14254199   -1.01134390    0.47578801
     atom   12 type  1   force =    -2.86615057    3.98582486    1.43619369
     atom   13 type  1   force =    -2.52774478   -1.97296048    1.29737775
     atom   14 type  1   force =     0.33512222   -0.34917137   -1.65298669
     atom   15 type  1   force =     1.74076322   -0.52393123   -1.58408950
     atom   16 type  1   force =     3.40406807    3.15367720    2.24155234
     atom   17 type  1   force =     0.25247698    1.47986347    2.80041486
     atom   18 type  1   force =    -4.49657086    0.45973021    3.10990916
     atom   19 type  1   force =    -2.84734484   -0.06594452    1.72804376
     atom   20 type  1   force =     1.75938353   -1.94065723    3.30211882
     atom   21 type  1   force =    -1.48172713    1.18058585   -4.94083310
     atom   22 type  1   force =    -3.64764893    1.92089620   -0.43519686
     atom   23 type  1   force =     1.12872490   -2.69919745    0.14295118
     atom   24 type  1   force =     2.48009219   -2.72156578   -4.40317914
     atom   25 type  1   force =    -0.23407498    0.95886450   -1.86433248
     atom   26 type  1   force =     4.52206256    0.36859213   -2.41245025
     atom   27 type  1   force =    -0.76644471    1.89277044    3.53587028
     atom   28 type  1   force =     3.30788944    0.07408981    1.52506104
     atom   29 type  1   force =    -1.76730529   -4.08421082   -2.65915454
     atom   30 type  1   force =    -1.12638430   -2.03430083    1.38405503
     atom   31 type  1   force =    -2.66490295    0.13060416   -0.96903934
     atom   32 type  1   force =     0.13263161    4.02716093   -3.80735307
     atom   33 type  1   force =    -1.10216834   -4.85707396   -0.04301000
     atom   34 type  1   force =    -2.82307391   -0.87939651    3.50368311
     atom   35 type  1   force =     1.21268554   -1.57685785   -2.31069611
     atom   36 type  1   force =    -0.95801612    3.71390129   -0.82673648
     atom   37 type  1   force =    -3.54705946    1.33872754   -0.64058265
     atom   38 type  1   force =     0.93727404    2.67285193   -0.46752052
     atom   39 type  1   force =    -0.47433876    2.45159309   -0.31543586
     atom   40 type  1   force =    -2.23394978    3.08261368    4.29670561
     atom   41 type  1   force =     4.64163279    1.13302632    2.20307104
     atom   42 type  1   force =     2.18686143   -0.54203556   -1.80117995
     atom   43 type  1   force =    -0.57589949    0.30176144   -1.84135941
     atom   44 type  1   force =     0.43249127   -1.49300877    2.48503613
     atom   45 type  2   force =     0.51032947    5.74072838  -14.27982713
     atom   46 type  2   force =     8.49562678   -4.45515196    2.99855055
     atom   47 type  2   force =     1.52788469   11.14119312    4.01025994
     atom   48 type  2   force =     8.36548604   -8.92276031   -7.14649476
     atom   49 type  2   force =    -6.68092801   -4.37033658   -8.56009901
     atom   50 type  2   force =   -12.86515182    7.46501751   -5.03442212
     atom   51 type  2   force =   -12.06793807    3.85072113    0.34170906
     atom   52 type  2   force =    10.72628520   -1.25969140    9.56782566
     atom   53 type  2   force =   -10.58392869   -5.06982170   10.79368755
     atom   54 type  2   force =    -0.48095022  -10.90291954    6.29684191
     atom   55 type  2   force =    -6.73241669    3.35538091  -12.44376297
     atom   56 type  2   force =     6.65507002   -3.15534419  -11.35342918
     atom   57 type  2   force =    13.26606017    1.54499773    0.45374275
     atom   58 type  2   force =     3.93261128   -6.70046799   14.23152675
     atom   59 type  2   force =     3.37538112  -15.48848064   -4.87331153
     atom   60 type  2   force =    -0.04318078   12.35149342   -5.14886004
     atom   61 type  2   force =   -14.88889762   -6.36252949    0.31779686
     atom   62 type  2   force =    10.84367827    6.47029216   -5.93098293
     atom   63 type  2   force =    -5.73737123   11.77877779    7.59714333
     atom   64 type  2   force =    -2.26263713    6.68221373   13.29785012
     atom   65 type  2   force =    10.02805923    6.93050584    6.83986711
     atom   66 type  2   force =    -5.52931913  -14.35784540   -1.16388274
     The core correction contribution to forces
     atom    1 type  1   force =     0.00000000    0.00000000    0.00000000
     atom    2 type  1   force =     0.00000000    0.00000000    0.00000000
     atom    3 type  1   force =     0.00000000    0.00000000    0.00000000
     atom    4 type  1   force =     0.00000000    0.00000000    0.00000000
     atom    5 type  1   force =     0.00000000    0.00000000    0.00000000
     atom    6 type  1   force =     0.00000000    0.00000000    0.00000000
     atom    7 type  1   force =     0.00000000    0.00000000    0.00000000
     atom    8 type  1   force =     0.00000000    0.00000000    0.00000000
     atom    9 type  1   force =     0.00000000    0.00000000    0.00000000
     atom   10 type  1   force =     0.00000000    0.00000000    0.00000000
     atom   11 type  1   force =     0.00000000    0.00000000    0.00000000
     atom   12 type  1   force =     0.00000000    0.00000000    0.00000000
     atom   13 type  1   force =     0.00000000    0.00000000    0.00000000
     atom   14 type  1   force =     0.00000000    0.00000000    0.00000000
     atom   15 type  1   force =     0.00000000    0.00000000    0.00000000
     atom   16 type  1   force =     0.00000000    0.00000000    0.00000000
     atom   17 type  1   force =     0.00000000    0.00000000    0.00000000
     atom   18 type  1   force =     0.00000000    0.00000000    0.00000000
     atom   19 type  1   force =     0.00000000    0.00000000    0.00000000
     atom   20 type  1   force =     0.00000000    0.00000000    0.00000000
     atom   21 type  1   force =     0.00000000    0.00000000    0.00000000
     atom   22 type  1   force =     0.00000000    0.00000000    0.00000000
     atom   23 type  1   force =     0.00000000    0.00000000    0.00000000
     atom   24 type  1   force =     0.00000000    0.00000000    0.00000000
     atom   25 type  1   force =     0.00000000    0.00000000    0.00000000
     atom   26 type  1   force =     0.00000000    0.00000000    0.00000000
     atom   27 type  1   force =     0.00000000    0.00000000    0.00000000
     atom   28 type  1   force =     0.00000000    0.00000000    0.00000000
     atom   29 type  1   force =     0.00000000    0.00000000    0.00000000
     atom   30 type  1   force =     0.00000000    0.00000000    0.00000000
     atom   31 type  1   force =     0.00000000    0.00000000    0.00000000
     atom   32 type  1   force =     0.00000000    0.00000000    0.00000000
     atom   33 type  1   force =     0.00000000    0.00000000    0.00000000
     atom   34 type  1   force =     0.00000000    0.00000000    0.00000000
     atom   35 type  1   force =     0.00000000    0.00000000    0.00000000
     atom   36 type  1   force =     0.00000000    0.00000000    0.00000000
     atom   37 type  1   force =     0.00000000    0.00000000    0.00000000
     atom   38 type  1   force =     0.00000000    0.00000000    0.00000000
     atom   39 type  1   force =     0.00000000    0.00000000    0.00000000
     atom   40 type  1   force =     0.00000000    0.00000000    0.00000000
     atom   41 type  1   force =     0.00000000    0.00000000    0.00000000
     atom   42 type  1   force =     0.00000000    0.00000000    0.00000000
     atom   43 type  1   force =     0.00000000    0.00000000    0.00000000
     atom   44 type  1   force =     0.00000000    0.00000000    0.00000000
     atom   45 type  2   force =     0.01668124   -0.01354266    0.00995517
     atom   46 type  2   force =    -0.01258190    0.01053770    0.01077130
     atom   47 type  2   force =     0.00887586    0.01115151   -0.01051028
     atom   48 type  2   force =    -0.00161499   -0.00730696    0.01448414
     atom   49 type  2   force =     0.01022780    0.00758810   -0.01334582
     atom   50 type  2   force =    -0.00096887    0.00359001    0.01831325
     atom   51 type  2   force =     0.00768727   -0.01692439   -0.00193560
     atom   52 type  2   force =     0.00832411    0.01507960   -0.01370643
     atom   53 type  2   force =    -0.00489015    0.01774811    0.01207777
     atom   54 type  2   force =    -0.00443891    0.00862640    0.01550167
     atom   55 type  2   force =    -0.01584999    0.01020872   -0.01048414
     atom   56 type  2   force =     0.00602266   -0.01951399   -0.00307226
     atom   57 type  2   force =     0.00013398    0.00366357   -0.02236573
     atom   58 type  2   force =     0.00511167    0.01873400   -0.00004798
     atom   59 type  2   force =    -0.01988839   -0.00413991   -0.00150600
     atom   60 type  2   force =    -0.01427113    0.00150237   -0.01577133
     atom   61 type  2   force =     0.00486438   -0.01520117    0.01576319
     atom   62 type  2   force =    -0.01789443   -0.00242875   -0.00627460
     atom   63 type  2   force =    -0.00194761   -0.00066237   -0.01805685
     atom   64 type  2   force =    -0.01077729    0.01581715   -0.00123432
     atom   65 type  2   force =     0.01837573   -0.00303027   -0.00792424
     atom   66 type  2   force =     0.00717959    0.01686926    0.00408516
     The Hubbard contrib.    to forces
     atom    1 type  1   force =     0.00000000    0.00000000    0.00000000
     atom    2 type  1   force =     0.00000000    0.00000000    0.00000000
     atom    3 type  1   force =     0.00000000    0.00000000    0.00000000
     atom    4 type  1   force =     0.00000000    0.00000000    0.00000000
     atom    5 type  1   force =     0.00000000    0.00000000    0.00000000
     atom    6 type  1   force =     0.00000000    0.00000000    0.00000000
     atom    7 type  1   force =     0.00000000    0.00000000    0.00000000
     atom    8 type  1   force =     0.00000000    0.00000000    0.00000000
     atom    9 type  1   force =     0.00000000    0.00000000    0.00000000
     atom   10 type  1   force =     0.00000000    0.00000000    0.00000000
     atom   11 type  1   force =     0.00000000    0.00000000    0.00000000
     atom   12 type  1   force =     0.00000000    0.00000000    0.00000000
     atom   13 type  1   force =     0.00000000    0.00000000    0.00000000
     atom   14 type  1   force =     0.00000000    0.00000000    0.00000000
     atom   15 type  1   force =     0.00000000    0.00000000    0.00000000
     atom   16 type  1   force =     0.00000000    0.00000000    0.00000000
     atom   17 type  1   force =     0.00000000    0.00000000    0.00000000
     atom   18 type  1   force =     0.00000000    0.00000000    0.00000000
     atom   19 type  1   force =     0.00000000    0.00000000    0.00000000
     atom   20 type  1   force =     0.00000000    0.00000000    0.00000000
     atom   21 type  1   force =     0.00000000    0.00000000    0.00000000
     atom   22 type  1   force =     0.00000000    0.00000000    0.00000000
     atom   23 type  1   force =     0.00000000    0.00000000    0.00000000
     atom   24 type  1   force =     0.00000000    0.00000000    0.00000000
     atom   25 type  1   force =     0.00000000    0.00000000    0.00000000
     atom   26 type  1   force =     0.00000000    0.00000000    0.00000000
     atom   27 type  1   force =     0.00000000    0.00000000    0.00000000
     atom   28 type  1   force =     0.00000000    0.00000000    0.00000000
     atom   29 type  1   force =     0.00000000    0.00000000    0.00000000
     atom   30 type  1   force =     0.00000000    0.00000000    0.00000000
     atom   31 type  1   force =     0.00000000    0.00000000    0.00000000
     atom   32 type  1   force =     0.00000000    0.00000000    0.00000000
     atom   33 type  1   force =     0.00000000    0.00000000    0.00000000
     atom   34 type  1   force =     0.00000000    0.00000000    0.00000000
     atom   35 type  1   force =     0.00000000    0.00000000    0.00000000
     atom   36 type  1   force =     0.00000000    0.00000000    0.00000000
     atom   37 type  1   force =     0.00000000    0.00000000    0.00000000
     atom   38 type  1   force =     0.00000000    0.00000000    0.00000000
     atom   39 type  1   force =     0.00000000    0.00000000    0.00000000
     atom   40 type  1   force =     0.00000000    0.00000000    0.00000000
     atom   41 type  1   force =     0.00000000    0.00000000    0.00000000
     atom   42 type  1   force =     0.00000000    0.00000000    0.00000000
     atom   43 type  1   force =     0.00000000    0.00000000    0.00000000
     atom   44 type  1   force =     0.00000000    0.00000000    0.00000000
     atom   45 type  2   force =     0.00000000    0.00000000    0.00000000
     atom   46 type  2   force =     0.00000000    0.00000000    0.00000000
     atom   47 type  2   force =     0.00000000    0.00000000    0.00000000
     atom   48 type  2   force =     0.00000000    0.00000000    0.00000000
     atom   49 type  2   force =     0.00000000    0.00000000    0.00000000
     atom   50 type  2   force =     0.00000000    0.00000000    0.00000000
     atom   51 type  2   force =     0.00000000    0.00000000    0.00000000
     atom   52 type  2   force =     0.00000000    0.00000000    0.00000000
     atom   53 type  2   force =     0.00000000    0.00000000    0.00000000
     atom   54 type  2   force =     0.00000000    0.00000000    0.00000000
     atom   55 type  2   force =     0.00000000    0.00000000    0.00000000
     atom   56 type  2   force =     0.00000000    0.00000000    0.00000000
     atom   57 type  2   force =     0.00000000    0.00000000    0.00000000
     atom   58 type  2   force =     0.00000000    0.00000000    0.00000000
     atom   59 type  2   force =     0.00000000    0.00000000    0.00000000
     atom   60 type  2   force =     0.00000000    0.00000000    0.00000000
     atom   61 type  2   force =     0.00000000    0.00000000    0.00000000
     atom   62 type  2   force =     0.00000000    0.00000000    0.00000000
     atom   63 type  2   force =     0.00000000    0.00000000    0.00000000
     atom   64 type  2   force =     0.00000000    0.00000000    0.00000000
     atom   65 type  2   force =     0.00000000    0.00000000    0.00000000
     atom   66 type  2   force =     0.00000000    0.00000000    0.00000000
     The SCF correction term to forces
     atom    1 type  1   force =     0.00001100   -0.00002605    0.00002986
     atom    2 type  1   force =     0.00004773   -0.00001309   -0.00000239
     atom    3 type  1   force =    -0.00002059    0.00001349    0.00001366
     atom    4 type  1   force =    -0.00001791    0.00001314    0.00000714
     atom    5 type  1   force =    -0.00000272    0.00000480   -0.00000602
     atom    6 type  1   force =    -0.00000431    0.00000563    0.00000428
     atom    7 type  1   force =    -0.00002232   -0.00004078    0.00001675
     atom    8 type  1   force =    -0.00001626    0.00001083    0.00004435
     atom    9 type  1   force =     0.00002237    0.00000103   -0.00000327
     atom   10 type  1   force =     0.00000926    0.00001567   -0.00002071
     atom   11 type  1   force =     0.00000170   -0.00001474    0.00001822
     atom   12 type  1   force =    -0.00001223    0.00003444    0.00003120
     atom   13 type  1   force =     0.00002145   -0.00002367    0.00001459
     atom   14 type  1   force =     0.00003123   -0.00001009   -0.00000176
     atom   15 type  1   force =    -0.00000529    0.00000988   -0.00003396
     atom   16 type  1   force =     0.00001566    0.00003356   -0.00000291
     atom   17 type  1   force =     0.00000253    0.00001725    0.00000240
     atom   18 type  1   force =    -0.00001797    0.00001986    0.00001425
     atom   19 type  1   force =    -0.00002353    0.00002847    0.00001119
     atom   20 type  1   force =    -0.00000083    0.00001766    0.00001093
     atom   21 type  1   force =    -0.00001375    0.00001084   -0.00002557
     atom   22 type  1   force =    -0.00001410    0.00001318    0.00000316
     atom   23 type  1   force =     0.00001238   -0.00001815    0.00000421
     atom   24 type  1   force =     0.00001897   -0.00002918   -0.00002627
     atom   25 type  1   force =    -0.00004293    0.00000812   -0.00002449
     atom   26 type  1   force =     0.00004118    0.00000425   -0.00004337
     atom   27 type  1   force =    -0.00001215    0.00004348    0.00000679
     atom   28 type  1   force =     0.00002574    0.00003848   -0.00001366
     atom   29 type  1   force =    -0.00001419   -0.00000451   -0.00000538
     atom   30 type  1   force =     0.00000809   -0.00000242   -0.00001305
     atom   31 type  1   force =    -0.00003041   -0.00001567   -0.00000235
     atom   32 type  1   force =    -0.00000350    0.00001804   -0.00003046
     atom   33 type  1   force =     0.00000809   -0.00002592    0.00002184
     atom   34 type  1   force =     0.00000503   -0.00000119    0.00003396
     atom   35 type  1   force =    -0.00000727   -0.00000623   -0.00000475
     atom   36 type  1   force =    -0.00002091    0.00000521   -0.00000268
     atom   37 type  1   force =     0.00000469    0.00000109   -0.00001270
     atom   38 type  1   force =    -0.00000291   -0.00000563   -0.00001885
     atom   39 type  1   force =    -0.00000749    0.00001381   -0.00002701
     atom   40 type  1   force =    -0.00002694    0.00002596    0.00002224
     atom   41 type  1   force =     0.00002119   -0.00000375   -0.00000227
     atom   42 type  1   force =     0.00001383   -0.00000724   -0.00000874
     atom   43 type  1   force =     0.00002691    0.00004312   -0.00000662
     atom   44 type  1   force =     0.00001984    0.00003683    0.00001303
     atom   45 type  2   force =     0.00028667   -0.00016179    0.00008580
     atom   46 type  2   force =    -0.00022746    0.00015817    0.00014906
     atom   47 type  2   force =    -0.00001825    0.00001321   -0.00006224
     atom   48 type  2   force =    -0.00011533   -0.00001316    0.00027074
     atom   49 type  2   force =     0.00024173    0.00005455   -0.00012113
     atom   50 type  2   force =    -0.00003900    0.00011836    0.00022060
     atom   51 type  2   force =     0.00020949   -0.00016637   -0.00003878
     atom   52 type  2   force =     0.00003483    0.00018897   -0.00013768
     atom   53 type  2   force =    -0.00002795    0.00025102    0.00013028
     atom   54 type  2   force =    -0.00005610    0.00019547    0.00019076
     atom   55 type  2   force =    -0.00016518    0.00010560   -0.00003189
     atom   56 type  2   force =     0.00013457   -0.00028886   -0.00006005
     atom   57 type  2   force =     0.00000733    0.00003901   -0.00019066
     atom   58 type  2   force =     0.00002349    0.00036841   -0.00004280
     atom   59 type  2   force =    -0.00025939   -0.00001898   -0.00001532
     atom   60 type  2   force =    -0.00015131    0.00001864   -0.00018220
     atom   61 type  2   force =     0.00005972   -0.00010362    0.00032144
     atom   62 type  2   force =    -0.00024407   -0.00004309   -0.00007016
     atom   63 type  2   force =    -0.00001398   -0.00003968   -0.00030722
     atom   64 type  2   force =    -0.00012580    0.00017815    0.00001406
     atom   65 type  2   force =     0.00030925   -0.00007504   -0.00015767
     atom   66 type  2   force =     0.00019495    0.00033349    0.00003661

     Total force =     0.475711     Total SCF correction =     0.001355


     Computing stress (Cartesian axis) and pressure


     negative rho (up, down):  5.074E-01 0.000E+00
          total   stress  (Ry/bohr**3)                   (kbar)     P=       -2.94
  -0.00001949   0.00000007  -0.00000010           -2.87        0.01       -0.01
   0.00000007  -0.00002019  -0.00000022            0.01       -2.97       -0.03
  -0.00000010  -0.00000022  -0.00002018           -0.01       -0.03       -2.97


     init_run     :      8.95s CPU      9.50s WALL (       1 calls)
     electrons    :     72.42s CPU     77.26s WALL (       1 calls)
     forces       :      5.59s CPU      5.88s WALL (       1 calls)
     stress       :     16.69s CPU     17.01s WALL (       1 calls)

     Called by init_run:
     wfcinit      :      3.40s CPU      3.70s WALL (       1 calls)
     potinit      :      1.58s CPU      1.66s WALL (       1 calls)
     hinit0       :      1.47s CPU      1.50s WALL (       1 calls)

     Called by electrons:
     c_bands      :     48.50s CPU     50.96s WALL (      10 calls)
     sum_band     :     13.42s CPU     14.54s WALL (      10 calls)
     v_of_rho     :      6.54s CPU      7.03s WALL (      11 calls)
     newd         :      2.93s CPU      3.73s WALL (      11 calls)
     PAW_pot      :      1.04s CPU      1.07s WALL (      11 calls)
     mix_rho      :      0.99s CPU      1.07s WALL (      10 calls)

     Called by c_bands:
     init_us_2    :      0.66s CPU      0.69s WALL (      21 calls)
     init_us_2:cp :      0.66s CPU      0.69s WALL (      21 calls)
     regterg      :     47.62s CPU     50.07s WALL (      10 calls)

     Called by *egterg:
     rdiaghg      :      0.22s CPU      0.23s WALL (      31 calls)
     h_psi        :     43.28s CPU     45.50s WALL (      32 calls)
     s_psi        :      1.38s CPU      1.39s WALL (      32 calls)
     g_psi        :      0.14s CPU      0.14s WALL (      21 calls)

     Called by h_psi:
     h_psi:calbec :      1.33s CPU      1.33s WALL (      32 calls)
     vloc_psi     :     40.21s CPU     42.41s WALL (      32 calls)
     add_vuspsi   :      1.39s CPU      1.39s WALL (      32 calls)

     General routines
     calbec       :      2.00s CPU      2.02s WALL (      47 calls)
     fft          :      3.59s CPU      4.07s WALL (     119 calls)
     ffts         :      0.24s CPU      0.27s WALL (      10 calls)
     fftw         :     35.30s CPU     37.79s WALL (    2904 calls)

     Parallel routines

     PWSCF        :   1m43.94s CPU   1m50.02s WALL


   This run was terminated on:  22:25:10  27Mar2024            

=------------------------------------------------------------------------------=
   JOB DONE.
=------------------------------------------------------------------------------=
