
     Program PWSCF v.7.2 starts on 27Mar2024 at 23:54: 3 

     This program is part of the open-source Quantum ESPRESSO suite
     for quantum simulation of materials; please cite
         "P. Giannozzi et al., J. Phys.:Condens. Matter 21 395502 (2009);
         "P. Giannozzi et al., J. Phys.:Condens. Matter 29 465901 (2017);
         "P. Giannozzi et al., J. Chem. Phys. 152 154105 (2020);
          URL http://www.quantum-espresso.org", 
     in publications or presentations arising from this work. More details at
     http://www.quantum-espresso.org/quote

     Parallel version (MPI), running on    32 processors

     MPI processes distributed on     1 nodes
     175075 MiB available memory on the printing compute node when the environment starts

     Reading input from pw-wt-442.in
Warning: card &CELL ignored
Warning: card / ignored

     Current dimensions of program PWSCF are:
     Max number of different atomic species (ntypx) = 10
     Max number of k-points (npk) =  40000
     Max angular momentum in pseudopotentials (lmaxx) =  4
     file O.pbe-n-kjpaw_psl.0.1.UPF: wavefunction(s)  2P renormalized

     IMPORTANT: XC functional enforced from input :
     Exchange-correlation= PBE
                           (   1   4   3   4   0   0   0)
     Any further DFT definition will be discarded
     Please, verify this is what you really want


     gamma-point specific algorithms are used

     R & G space division:  proc/nbgrp/npool/nimage =      32
     Subspace diagonalization in iterative solution of the eigenvalue problem:
     a serial algorithm will be used


     Parallelization info
     --------------------
     sticks:   dense  smooth     PW     G-vecs:    dense   smooth      PW
     Min        1707    1707    426               301015   301015   37634
     Max        1710    1710    428               301034   301034   37648
     Sum       54693   54693  13673              9632757  9632757 1204469

     Using Slab Decomposition



     bravais-lattice index     =            0
     lattice parameter (alat)  =      75.7119  a.u.
     unit-cell volume          =  434002.3113 (a.u.)^3
     number of atoms/cell      =           66
     number of atomic types    =            2
     number of electrons       =       176.00
     number of Kohn-Sham states=           88
     kinetic-energy cutoff     =      30.0000  Ry
     charge density cutoff     =     120.0000  Ry
     scf convergence threshold =      1.0E-06
     mixing beta               =       0.5000
     number of iterations used =            8  plain     mixing
     Exchange-correlation= PBE
                           (   1   4   3   4   0   0   0)

     celldm(1)=  75.711877  celldm(2)=   0.000000  celldm(3)=   0.000000
     celldm(4)=   0.000000  celldm(5)=   0.000000  celldm(6)=   0.000000

     crystal axes: (cart. coord. in units of alat)
               a(1) = (   1.000000   0.000000   0.000000 )  
               a(2) = (   0.000000   1.000000   0.000000 )  
               a(3) = (   0.000000   0.000000   1.000000 )  

     reciprocal axes: (cart. coord. in units 2 pi/alat)
               b(1) = (  1.000000  0.000000  0.000000 )  
               b(2) = (  0.000000  1.000000  0.000000 )  
               b(3) = (  0.000000  0.000000  1.000000 )  


     PseudoPot. # 1 for H  read from file:
     /share/pfaendtnergroup/rverma7/QE_PP/H.pbe-rrkjus_psl.1.0.0.UPF
     MD5 check sum: f52b6d4d1c606e5624b1dc7b2218f220
     Pseudo is Ultrasoft, Zval =  1.0
     Generated using "atomic" code by A. Dal Corso  v.5.1
     Using radial grid of  929 points,  2 beta functions with: 
                l(1) =   0
                l(2) =   0
     Q(r) pseudized with 0 coefficients 


     PseudoPot. # 2 for O  read from file:
     /share/pfaendtnergroup/rverma7/QE_PP/O.pbe-n-kjpaw_psl.0.1.UPF
     MD5 check sum: 0234752ac141de4415c5fc33072bef88
     Pseudo is Projector augmented-wave + core cor, Zval =  6.0
     Generated using "atomic" code by A. Dal Corso  v.5.0.99 svn rev. 10869
     Shape of augmentation charge: BESSEL
     Using radial grid of 1095 points,  4 beta functions with: 
                l(1) =   0
                l(2) =   0
                l(3) =   1
                l(4) =   1
     Q(r) pseudized with 0 coefficients 


     atomic species   valence    mass     pseudopotential
        H              1.00     1.00800     H ( 1.00)
        O              6.00    15.99900     O ( 1.00)

     No symmetry found



   Cartesian axes

     site n.     atom                  positions (alat units)
         1           H   tau(   1) = (   0.1932859   0.2061151   0.2820417  )
         2           H   tau(   2) = (   0.2158992   0.2091352   0.2452515  )
         3           H   tau(   3) = (   0.2782978   0.2790715   0.3871209  )
         4           H   tau(   4) = (   0.3181580   0.2832148   0.3956071  )
         5           H   tau(   5) = (   0.3785848   0.2138275   0.4022713  )
         6           H   tau(   6) = (   0.3402221   0.2277799   0.3913141  )
         7           H   tau(   7) = (   0.1538999   0.2998627   0.3676026  )
         8           H   tau(   8) = (   0.1792337   0.2720579   0.3670785  )
         9           H   tau(   9) = (   0.2133783   0.1617621   0.3989767  )
        10           H   tau(  10) = (   0.2323474   0.1845251   0.4261575  )
        11           H   tau(  11) = (   0.3646824   0.2930488   0.4783477  )
        12           H   tau(  12) = (   0.3457382   0.3049794   0.5117684  )
        13           H   tau(  13) = (   0.4159241   0.1687009   0.4195432  )
        14           H   tau(  14) = (   0.4429053   0.1977537   0.4028703  )
        15           H   tau(  15) = (   0.2035942   0.2449769   0.4938725  )
        16           H   tau(  16) = (   0.1665294   0.2609510   0.4879820  )
        17           H   tau(  17) = (   0.5006365   0.2672407   0.3398727  )
        18           H   tau(  18) = (   0.4595033   0.2633720   0.3444652  )
        19           H   tau(  19) = (   0.2754274   0.2155248   0.4564832  )
        20           H   tau(  20) = (   0.2874329   0.2042181   0.4205416  )
        21           H   tau(  21) = (   0.3801073   0.2551853   0.4414826  )
        22           H   tau(  22) = (   0.4194933   0.2544615   0.4481468  )
        23           H   tau(  23) = (   0.2860102   0.2666667   0.4479221  )
        24           H   tau(  24) = (   0.3110446   0.2740047   0.4785973  )
        25           H   tau(  25) = (   0.2370398   0.2680145   0.2710096  )
        26           H   tau(  26) = (   0.2044178   0.2737551   0.2962436  )
        27           H   tau(  27) = (   0.2325471   0.2631474   0.3768127  )
        28           H   tau(  28) = (   0.2409584   0.2632971   0.3383003  )
        29           H   tau(  29) = (   0.2465244   0.2376388   0.5360040  )
        30           H   tau(  30) = (   0.2574816   0.2627480   0.5039062  )
        31           H   tau(  31) = (   0.2976913   0.1909148   0.3625608  )
        32           H   tau(  32) = (   0.2852864   0.2265319   0.3711219  )
        33           H   tau(  33) = (   0.4115562   0.2477973   0.3613129  )
        34           H   tau(  34) = (   0.4078872   0.2884812   0.3750655  )
        35           H   tau(  35) = (   0.1999251   0.2498190   0.4253338  )
        36           H   tau(  36) = (   0.2087358   0.2279047   0.3935854  )
        37           H   tau(  37) = (   0.2514164   0.1852989   0.2966180  )
        38           H   tau(  38) = (   0.2618994   0.2191189   0.3056533  )
        39           H   tau(  39) = (   0.3609634   0.3118682   0.4106327  )
        40           H   tau(  40) = (   0.3609135   0.2742543   0.3977037  )
        41           H   tau(  41) = (   0.1387995   0.2560339   0.2872832  )
        42           H   tau(  42) = (   0.1611382   0.2608511   0.3186572  )
        43           H   tau(  43) = (   0.4763260   0.2179708   0.3682266  )
        44           H   tau(  44) = (   0.5089480   0.1967802   0.3830026  )
        45           O   tau(  45) = (   0.2164982   0.2042930   0.2710346  )
        46           O   tau(  46) = (   0.2954699   0.2803694   0.4065394  )
        47           O   tau(  47) = (   0.3635093   0.2343692   0.4018470  )
        48           O   tau(  48) = (   0.1584176   0.2802446   0.3535754  )
        49           O   tau(  49) = (   0.2118308   0.1834519   0.4113316  )
        50           O   tau(  50) = (   0.3424186   0.2957195   0.4887059  )
        51           O   tau(  51) = (   0.4194184   0.1930862   0.4131786  )
        52           O   tau(  52) = (   0.1857482   0.2527643   0.4759266  )
        53           O   tau(  53) = (   0.4824161   0.2505179   0.3389991  )
        54           O   tau(  54) = (   0.2720329   0.1978285   0.4386622  )
        55           O   tau(  55) = (   0.3998003   0.2693872   0.4515163  )
        56           O   tau(  56) = (   0.2877324   0.2633471   0.4732560  )
        57           O   tau(  57) = (   0.2292774   0.2706352   0.2955697  )
        58           O   tau(  58) = (   0.2528641   0.2641707   0.3607887  )
        59           O   tau(  59) = (   0.2387121   0.2539623   0.5188319  )
        60           O   tau(  60) = (   0.3038313   0.2104830   0.3778111  )
        61           O   tau(  61) = (   0.4228628   0.2703357   0.3646824  )
        62           O   tau(  62) = (   0.2054911   0.2522651   0.4009734  )
        63           O   tau(  63) = (   0.2690378   0.1966055   0.3110695  )
        64           O   tau(  64) = (   0.3568950   0.2999875   0.3908149  )
        65           O   tau(  65) = (   0.1643080   0.2564333   0.2933733  )
        66           O   tau(  66) = (   0.4843879   0.2015475   0.3860477  )

     number of k points=     1
                       cart. coord. in units 2pi/alat
        k(    1) = (   0.0000000   0.0000000   0.0000000), wk =   2.0000000

     Dense  grid:  4816379 G-vectors     FFT dimensions: ( 270, 270, 270)

     Estimated max dynamical RAM per process >     612.29 MB

     Estimated total dynamical RAM >      19.13 GB

     Check: negative core charge=   -0.000006

     Initial potential from superposition of free atoms

     starting charge     175.9995, renormalised to     176.0000

     negative rho (up, down):  3.755E-01 0.000E+00
     Starting wfcs are  132 randomized atomic wfcs
     Checking if some PAW data can be deallocated... 

     total cpu time spent up to now is        8.1 secs

     Self-consistent Calculation

     iteration #  1     ecut=    30.00 Ry     beta= 0.50
     Davidson diagonalization with overlap
     ethr =  1.00E-02,  avg # of iterations =  2.0

     negative rho (up, down):  4.452E-01 0.000E+00

     total cpu time spent up to now is       16.1 secs

     total energy              =    -965.59623430 Ry
     estimated scf accuracy    <       7.12531754 Ry

     iteration #  2     ecut=    30.00 Ry     beta= 0.50
     Davidson diagonalization with overlap
     ethr =  4.05E-03,  avg # of iterations =  2.0

     negative rho (up, down):  4.654E-01 0.000E+00

     total cpu time spent up to now is       24.7 secs

     total energy              =    -967.61061712 Ry
     estimated scf accuracy    <       1.09142294 Ry

     iteration #  3     ecut=    30.00 Ry     beta= 0.50
     Davidson diagonalization with overlap
     ethr =  6.20E-04,  avg # of iterations =  2.0

     negative rho (up, down):  5.117E-01 0.000E+00

     total cpu time spent up to now is       32.2 secs

     total energy              =    -967.67042895 Ry
     estimated scf accuracy    <       0.13679882 Ry

     iteration #  4     ecut=    30.00 Ry     beta= 0.50
     Davidson diagonalization with overlap
     ethr =  7.77E-05,  avg # of iterations =  3.0

     negative rho (up, down):  5.118E-01 0.000E+00

     total cpu time spent up to now is       40.9 secs

     total energy              =    -967.69520314 Ry
     estimated scf accuracy    <       0.04323533 Ry

     iteration #  5     ecut=    30.00 Ry     beta= 0.50
     Davidson diagonalization with overlap
     ethr =  2.46E-05,  avg # of iterations =  2.0

     negative rho (up, down):  5.108E-01 0.000E+00

     total cpu time spent up to now is       47.7 secs

     total energy              =    -967.69596653 Ry
     estimated scf accuracy    <       0.00801856 Ry

     iteration #  6     ecut=    30.00 Ry     beta= 0.50
     Davidson diagonalization with overlap
     ethr =  4.56E-06,  avg # of iterations =  2.0

     negative rho (up, down):  5.100E-01 0.000E+00

     total cpu time spent up to now is       54.9 secs

     total energy              =    -967.69618861 Ry
     estimated scf accuracy    <       0.00170346 Ry

     iteration #  7     ecut=    30.00 Ry     beta= 0.50
     Davidson diagonalization with overlap
     ethr =  9.68E-07,  avg # of iterations =  2.0

     negative rho (up, down):  5.097E-01 0.000E+00

     total cpu time spent up to now is       62.7 secs

     total energy              =    -967.69640308 Ry
     estimated scf accuracy    <       0.00013969 Ry

     iteration #  8     ecut=    30.00 Ry     beta= 0.50
     Davidson diagonalization with overlap
     ethr =  7.94E-08,  avg # of iterations =  2.0

     negative rho (up, down):  5.097E-01 0.000E+00

     total cpu time spent up to now is       71.1 secs

     total energy              =    -967.69645533 Ry
     estimated scf accuracy    <       0.00001336 Ry

     iteration #  9     ecut=    30.00 Ry     beta= 0.50
     Davidson diagonalization with overlap
     ethr =  7.59E-09,  avg # of iterations =  2.0

     negative rho (up, down):  5.098E-01 0.000E+00

     total cpu time spent up to now is       78.3 secs

     total energy              =    -967.69645206 Ry
     estimated scf accuracy    <       0.00001141 Ry

     iteration # 10     ecut=    30.00 Ry     beta= 0.50
     Davidson diagonalization with overlap
     ethr =  6.48E-09,  avg # of iterations =  2.0

     negative rho (up, down):  5.098E-01 0.000E+00

     total cpu time spent up to now is       86.7 secs

     End of self-consistent calculation

          k = 0.0000 0.0000 0.0000 (602235 PWs)   bands (ev):

   -25.7720 -25.5924 -25.4340 -25.3781 -25.2380 -25.2011 -25.0709 -25.0483
   -24.9787 -24.8002 -24.7678 -24.7140 -24.6022 -24.5500 -24.5282 -24.4402
   -24.3829 -24.3735 -24.1610 -23.9535 -23.6375 -23.2923 -13.5317 -13.5071
   -13.4930 -13.4610 -13.3240 -13.2551 -13.2382 -12.9111 -12.8089 -12.7755
   -12.5918 -12.5674 -12.3978 -12.3828 -12.3592 -12.2571 -12.2055 -12.1581
   -11.9584 -11.8339 -11.7623 -11.5000 -10.9504 -10.6630 -10.5429 -10.1653
   -10.1463 -10.0414  -9.7527  -9.5850  -9.5235  -9.3971  -9.2646  -9.1202
    -8.9730  -8.9174  -8.8486  -8.5247  -8.4076  -8.3428  -8.3043  -8.2409
    -7.9638  -7.9077  -7.7901  -7.6582  -7.5926  -7.5201  -7.4758  -7.4463
    -7.4020  -7.3526  -7.3298  -7.1282  -7.0564  -7.0021  -6.8903  -6.8372
    -6.8079  -6.7759  -6.6395  -6.6040  -6.4239  -6.2795  -6.2340  -5.8715

     highest occupied level (ev):    -5.8715

!    total energy              =    -967.69645271 Ry
     estimated scf accuracy    <       0.00000084 Ry

     The total energy is the sum of the following terms:
     one-electron contribution =   -5360.13952061 Ry
     hartree contribution      =    2716.02306829 Ry
     xc contribution           =    -193.43311473 Ry
     ewald contribution        =    2079.17299242 Ry
     one-center paw contrib.   =    -209.31987807 Ry

     convergence has been achieved in  10 iterations

     negative rho (up, down):  5.098E-01 0.000E+00

     Forces acting on atoms (cartesian axes, Ry/au):

     atom    1 type  1   force =     0.06047662    0.01287197   -0.05775696
     atom    2 type  1   force =    -0.02473797   -0.02172321    0.11098604
     atom    3 type  1   force =     0.04805398    0.00680334    0.04020248
     atom    4 type  1   force =    -0.04370318    0.01933194    0.01826964
     atom    5 type  1   force =    -0.01300569    0.03605284    0.00028725
     atom    6 type  1   force =     0.05932856   -0.00441044    0.02765363
     atom    7 type  1   force =    -0.01763636    0.00478164   -0.01708572
     atom    8 type  1   force =    -0.05776813    0.00016309   -0.02283374
     atom    9 type  1   force =     0.00064553    0.03694626    0.02267152
     atom   10 type  1   force =    -0.00270984    0.00578646   -0.01961154
     atom   11 type  1   force =     0.00608501   -0.00619837    0.01216936
     atom   12 type  1   force =    -0.00072563   -0.01865086   -0.04493764
     atom   13 type  1   force =     0.03428155    0.06516784   -0.02612417
     atom   14 type  1   force =    -0.04826825   -0.04706075    0.03621829
     atom   15 type  1   force =    -0.04773932    0.04295993   -0.04612856
     atom   16 type  1   force =    -0.00993901    0.00446609    0.01398968
     atom   17 type  1   force =    -0.02481534   -0.01270941    0.00438280
     atom   18 type  1   force =     0.07908106   -0.02723850   -0.00937766
     atom   19 type  1   force =    -0.00144237   -0.02612217   -0.02946320
     atom   20 type  1   force =    -0.00032559    0.00008948   -0.01120246
     atom   21 type  1   force =     0.07188897    0.03501434    0.02361425
     atom   22 type  1   force =    -0.02772105    0.01809743    0.00536225
     atom   23 type  1   force =     0.00539430    0.01165042    0.03185087
     atom   24 type  1   force =    -0.06101766   -0.02399921   -0.00777672
     atom   25 type  1   force =    -0.04338169    0.00884707    0.09107971
     atom   26 type  1   force =     0.02434710   -0.00940145   -0.03351136
     atom   27 type  1   force =     0.05017174    0.00382033   -0.00396820
     atom   28 type  1   force =     0.04474426    0.01496856    0.01640603
     atom   29 type  1   force =     0.00614692    0.03075733   -0.03887057
     atom   30 type  1   force =    -0.00365355   -0.03081584    0.01300025
     atom   31 type  1   force =     0.02402949    0.04465481    0.02975208
     atom   32 type  1   force =     0.02528781   -0.00488662    0.01104252
     atom   33 type  1   force =    -0.00164925    0.07758244    0.02447829
     atom   34 type  1   force =     0.01380211   -0.06967392   -0.03198075
     atom   35 type  1   force =     0.00034294    0.01344366   -0.01101851
     atom   36 type  1   force =    -0.01155183    0.02608045    0.03395491
     atom   37 type  1   force =     0.03744936    0.01238295    0.03006221
     atom   38 type  1   force =     0.00299189    0.02999821    0.00719018
     atom   39 type  1   force =     0.01005917    0.04308528    0.07077889
     atom   40 type  1   force =     0.00806705    0.07736054   -0.02598114
     atom   41 type  1   force =     0.10000710    0.00504724    0.00850564
     atom   42 type  1   force =     0.00701030    0.00717963   -0.04363477
     atom   43 type  1   force =     0.06050026   -0.01481197    0.01466515
     atom   44 type  1   force =    -0.06161414    0.01976987   -0.00362889
     atom   45 type  2   force =    -0.04808455    0.00173847   -0.06926444
     atom   46 type  2   force =    -0.01965558   -0.00931438   -0.03929133
     atom   47 type  2   force =    -0.04632943   -0.04417375   -0.02384776
     atom   48 type  2   force =     0.07505454   -0.01144930    0.07433526
     atom   49 type  2   force =     0.00463910   -0.03132473   -0.01529381
     atom   50 type  2   force =     0.02018039    0.02909131    0.03649301
     atom   51 type  2   force =     0.01660537   -0.02147460   -0.00817792
     atom   52 type  2   force =     0.06647151   -0.04052135    0.01891589
     atom   53 type  2   force =    -0.06571489    0.04708317    0.00404983
     atom   54 type  2   force =     0.00048457    0.02165434    0.05274793
     atom   55 type  2   force =    -0.05106392   -0.05405144   -0.02734680
     atom   56 type  2   force =     0.03937338    0.00923539   -0.02772440
     atom   57 type  2   force =     0.02958721    0.01030235   -0.05709837
     atom   58 type  2   force =    -0.06799195   -0.01790991   -0.03426812
     atom   59 type  2   force =    -0.00534973   -0.01083993    0.01963309
     atom   60 type  2   force =    -0.05374812   -0.02750808   -0.04829217
     atom   61 type  2   force =    -0.01682171   -0.01039335   -0.00019864
     atom   62 type  2   force =    -0.02480616   -0.05511979   -0.00143217
     atom   63 type  2   force =    -0.02873255   -0.04342767   -0.02414786
     atom   64 type  2   force =     0.02243579   -0.12046726   -0.05591413
     atom   65 type  2   force =    -0.12539166   -0.01677379    0.02119181
     atom   66 type  2   force =     0.00207115   -0.00181444   -0.00875025
     The non-local contrib.  to forces
     atom    1 type  1   force =     0.08011746   -0.00639408   -0.04299892
     atom    2 type  1   force =    -0.00245447   -0.01476354    0.08204354
     atom    3 type  1   force =     0.05673521    0.00332793    0.06140380
     atom    4 type  1   force =    -0.08327748   -0.01210327    0.03847215
     atom    5 type  1   force =    -0.05714951    0.07376920   -0.00312755
     atom    6 type  1   force =     0.07136682    0.01785557    0.03158722
     atom    7 type  1   force =     0.02058498   -0.08612087   -0.06147871
     atom    8 type  1   force =    -0.06707587    0.02762585   -0.04404176
     atom    9 type  1   force =    -0.00345776    0.08615609    0.05039398
     atom   10 type  1   force =    -0.07589301   -0.00701059   -0.05679203
     atom   11 type  1   force =    -0.09488305    0.01285618    0.04754070
     atom   12 type  1   force =    -0.00992719   -0.03723490   -0.09236569
     atom   13 type  1   force =     0.01648316    0.08932273   -0.02516759
     atom   14 type  1   force =    -0.07639556   -0.01863925    0.03322008
     atom   15 type  1   force =    -0.05558619    0.02369581   -0.05149797
     atom   16 type  1   force =     0.09210930   -0.03935989   -0.05425621
     atom   17 type  1   force =    -0.07847073   -0.06814796   -0.00223857
     atom   18 type  1   force =     0.06499022   -0.03359326   -0.01467610
     atom   19 type  1   force =    -0.01178321   -0.06630360   -0.06920669
     atom   20 type  1   force =    -0.06598480   -0.02516425    0.07944006
     atom   21 type  1   force =     0.06403215    0.04378319    0.03167768
     atom   22 type  1   force =    -0.08200529    0.05948241    0.01317874
     atom   23 type  1   force =     0.00688707   -0.01159073    0.09034439
     atom   24 type  1   force =    -0.07112588   -0.03235311   -0.01773022
     atom   25 type  1   force =    -0.02965597    0.00910528    0.08220759
     atom   26 type  1   force =     0.09879366   -0.01274473   -0.00576440
     atom   27 type  1   force =     0.06294967    0.00182880   -0.05214880
     atom   28 type  1   force =     0.04158231    0.00290767    0.08309163
     atom   29 type  1   force =    -0.02776122    0.06603326   -0.07098810
     atom   30 type  1   force =    -0.06409819   -0.03390287    0.05531246
     atom   31 type  1   force =     0.02255958    0.07190901    0.05653715
     atom   32 type  1   force =     0.06944617   -0.06169998    0.02412564
     atom   33 type  1   force =     0.03890235    0.08549632    0.01389729
     atom   34 type  1   force =     0.05027415   -0.06692040   -0.03674078
     atom   35 type  1   force =     0.02264975    0.00818885   -0.09794294
     atom   36 type  1   force =    -0.01198790    0.08751890    0.02700396
     atom   37 type  1   force =     0.06567803    0.04230210    0.05410705
     atom   38 type  1   force =     0.03298286   -0.10551682    0.02487393
     atom   39 type  1   force =    -0.02179061   -0.06692188   -0.10532263
     atom   40 type  1   force =    -0.01081714    0.06867738   -0.01570798
     atom   41 type  1   force =     0.08054193    0.00176687    0.02059036
     atom   42 type  1   force =     0.00968576   -0.01491611   -0.08411254
     atom   43 type  1   force =     0.03155174   -0.05932763    0.06292406
     atom   44 type  1   force =    -0.09469864    0.02043047    0.00906438
     atom   45 type  2   force =    -1.79264918    0.36132909   -1.15793149
     atom   46 type  2   force =     0.38650348   -0.07537345   -1.75820700
     atom   47 type  2   force =    -0.38372946   -1.48074110   -0.56768877
     atom   48 type  2   force =     1.00078375    0.87800557    1.64198138
     atom   49 type  2   force =     1.47016266   -1.49296058   -0.09204140
     atom   50 type  2   force =     1.79042838    0.37926126    0.98042800
     atom   51 type  2   force =     1.19233973   -1.52454617   -0.32455822
     atom   52 type  2   force =    -0.45171143    0.12143645    1.96860247
     atom   53 type  2   force =     0.00434145    2.00211047    0.54526310
     atom   54 type  2   force =     1.11949904    1.62885779   -0.05086882
     atom   55 type  2   force =     0.09773562   -1.99149701   -0.80228464
     atom   56 type  2   force =     1.08508225    0.72355642   -1.13855164
     atom   57 type  2   force =    -1.13669791   -0.00516923   -1.62883925
     atom   58 type  2   force =    -1.78238986   -0.13574854   -0.43291717
     atom   59 type  2   force =     1.75385824   -0.81706501    0.29279822
     atom   60 type  2   force =    -1.43950494   -0.27865834   -1.33388867
     atom   61 type  2   force =    -1.78938218   -0.41414732    0.35996085
     atom   62 type  2   force =    -0.13361367   -1.53626454    0.88347950
     atom   63 type  2   force =    -1.66901961    0.85368474   -1.28089418
     atom   64 type  2   force =     0.54331363   -0.61480389    2.03022813
     atom   65 type  2   force =    -1.84476521    0.21633078    1.10278773
     atom   66 type  2   force =     1.16272924    0.66734732   -1.35613959
     The ionic contribution  to forces
     atom    1 type  1   force =    -3.79434533   -1.20547352   -0.01893243
     atom    2 type  1   force =    -0.40821955   -0.15774704   -4.90090060
     atom    3 type  1   force =    -1.50996251    1.97037444   -1.90276640
     atom    4 type  1   force =     2.15345999    1.74697426   -1.68084696
     atom    5 type  1   force =     2.14660749   -3.64417390   -0.11455110
     atom    6 type  1   force =    -1.01304936   -1.44993878   -1.41589926
     atom    7 type  1   force =    -2.41746551    4.13619823    1.99305269
     atom    8 type  1   force =     0.23597505    0.12763518    1.15073931
     atom    9 type  1   force =    -0.97789996   -4.89670407   -1.63831669
     atom   10 type  1   force =     0.92553119   -2.02369257    2.41311130
     atom   11 type  1   force =     3.62503210    0.97274293    0.46259513
     atom   12 type  1   force =     0.93961622    2.31443329    4.84624816
     atom   13 type  1   force =     0.28949589   -4.76639713    1.34733489
     atom   14 type  1   force =     3.19227325   -0.69912398   -0.56539941
     atom   15 type  1   force =     0.01090443   -1.11906249    2.96156975
     atom   16 type  1   force =    -4.53850408    1.57547792    2.79540624
     atom   17 type  1   force =     4.04191834    2.82899845   -0.65023390
     atom   18 type  1   force =    -0.47390176    1.81572176   -0.95990995
     atom   19 type  1   force =     0.25522515    0.43702085    3.67130760
     atom   20 type  1   force =     2.06969732   -1.08297456   -1.16423093
     atom   21 type  1   force =    -0.76991981   -1.38418688    0.74646934
     atom   22 type  1   force =     4.36340135   -1.60555233    1.07941354
     atom   23 type  1   force =    -0.68809687    1.07240324   -1.22769775
     atom   24 type  1   force =     1.99852575    1.23182212    2.18619388
     atom   25 type  1   force =     1.23228779    0.77552272   -4.84222154
     atom   26 type  1   force =    -3.09354757    1.88894139   -1.36325417
     atom   27 type  1   force =    -2.32483517    1.16663847    0.92527278
     atom   28 type  1   force =    -1.35946255    0.75142290   -3.19140544
     atom   29 type  1   force =     0.62879578   -2.54855586    4.36328554
     atom   30 type  1   force =     1.29928048    1.56602820    0.68624672
     atom   31 type  1   force =    -0.00794343   -4.35641506   -2.52059159
     atom   32 type  1   force =    -1.67184600    0.88805340   -1.63117416
     atom   33 type  1   force =    -0.36657950   -2.71217806   -1.89495591
     atom   34 type  1   force =    -0.10031905    3.55335196    0.24647899
     atom   35 type  1   force =    -2.31729263    0.17913042    3.53807855
     atom   36 type  1   force =    -1.33493136   -3.15046944   -0.98803878
     atom   37 type  1   force =    -1.61444809   -3.34056439   -2.72232375
     atom   38 type  1   force =    -0.16291007    2.45485016   -2.19164026
     atom   39 type  1   force =     1.39904116    4.33477774    3.01805831
     atom   40 type  1   force =     1.16983370   -0.65215691   -0.00429213
     atom   41 type  1   force =    -4.63374573    0.01930731   -1.96035194
     atom   42 type  1   force =    -2.13033800    0.24480141    1.36701382
     atom   43 type  1   force =     0.44374938    0.82877661   -2.10393938
     atom   44 type  1   force =     4.76138727   -1.41387162   -0.25523028
     atom   45 type  2   force =    -1.80885364   -7.37463190   -9.68472506
     atom   46 type  2   force =    -1.65349172    9.97229779    3.36420851
     atom   47 type  2   force =     5.30564438   -3.37831903    0.04066383
     atom   48 type  2   force =   -13.14499970    4.72153985   -2.36424112
     atom   49 type  2   force =   -11.10968313   -9.62992995    1.68637201
     atom   50 type  2   force =     1.45550263    7.21837385    9.65408111
     atom   51 type  2   force =     4.33480069   -7.28886773    3.59164948
     atom   52 type  2   force =    -9.74040521    1.05675795    3.75286272
     atom   53 type  2   force =     8.91973791   -0.97942602   -7.96071689
     atom   54 type  2   force =    -1.75132138  -13.59909186    7.99191169
     atom   55 type  2   force =     9.89705300    6.34198416    9.98530216
     atom   56 type  2   force =    -2.34354986    1.39187470   11.62944875
     atom   57 type  2   force =     2.19310589    7.50519133   -8.15567612
     atom   58 type  2   force =     1.39394849    6.36824687   -5.41408235
     atom   59 type  2   force =    -6.05026919    1.81092326   12.71370361
     atom   60 type  2   force =     5.75761449   -8.96031369   -3.03032378
     atom   61 type  2   force =     9.00164662    5.92903259   -6.22644446
     atom   62 type  2   force =    -9.95376148    4.94986144    1.91592851
     atom   63 type  2   force =     5.91553593  -10.10148166   -5.91545792
     atom   64 type  2   force =     3.73208342   13.58673741   -7.92736684
     atom   65 type  2   force =    -8.22240412    0.36677968  -10.32401026
     atom   66 type  2   force =     8.39959081   -6.57970585    2.78814057
     The local contribution  to forces
     atom    1 type  1   force =     3.77467497    1.22475884    0.00419683
     atom    2 type  1   force =     0.38596191    0.15081821    4.92978474
     atom    3 type  1   force =     1.50130066   -1.96687634    1.88154377
     atom    4 type  1   force =    -2.11383122   -1.71552543    1.66062908
     atom    5 type  1   force =    -2.10241982    3.60644443    0.11796777
     atom    6 type  1   force =     1.00103566    1.42768967    1.41196352
     atom    7 type  1   force =     2.37928326   -4.04526309   -1.94863316
     atom    8 type  1   force =    -0.22662617   -0.15507656   -1.12951994
     atom    9 type  1   force =     0.98203427    4.84747680    1.61057512
     atom   10 type  1   force =    -0.85231088    2.03649132   -2.37592536
     atom   11 type  1   force =    -3.52399642   -0.99178015   -0.49796532
     atom   12 type  1   force =    -0.93036760   -2.29581618   -4.79877380
     atom   13 type  1   force =    -0.27167518    4.74222241   -1.34827830
     atom   14 type  1   force =    -3.16410185    0.67071831    0.56839454
     atom   15 type  1   force =    -0.00302614    1.13832697   -2.95616866
     atom   16 type  1   force =     4.43644871   -1.53162269   -2.72712971
     atom   17 type  1   force =    -3.98820850   -2.77350485    0.65686588
     atom   18 type  1   force =     0.48801253   -1.80932490    0.96521428
     atom   19 type  1   force =    -0.24483542   -0.39678821   -3.63153444
     atom   20 type  1   force =    -2.00397696    1.10826937    1.07356977
     atom   21 type  1   force =     0.77779841    1.37541827   -0.75453159
     atom   22 type  1   force =    -4.30907220    1.56416119   -1.08723015
     atom   23 type  1   force =     0.68663767   -1.04914995    1.16916084
     atom   24 type  1   force =    -1.98834331   -1.22344137   -2.17623706
     atom   25 type  1   force =    -1.24597936   -0.77576981    4.85105524
     atom   26 type  1   force =     3.01909916   -1.88557357    1.33550438
     atom   27 type  1   force =     2.31204576   -1.16463611   -0.87708214
     atom   28 type  1   force =     1.36261875   -0.73935693    3.12469793
     atom   29 type  1   force =    -0.59484423    2.51326689   -4.33113198
     atom   30 type  1   force =    -1.23879250   -1.56292073   -0.72854749
     atom   31 type  1   force =     0.00941504    4.32913400    2.49377653
     atom   32 type  1   force =     1.62766815   -0.83120490    1.61807728
     atom   33 type  1   force =     0.32603846    2.70424631    1.90553241
     atom   34 type  1   force =     0.06385725   -3.55606574   -0.24169821
     atom   35 type  1   force =     2.29500502   -0.17387056   -3.45113522
     atom   36 type  1   force =     1.33539906    3.08902936    0.99497087
     atom   37 type  1   force =     1.58622399    3.31064708    2.69826169
     atom   38 type  1   force =     0.13292389   -2.31928570    2.17394306
     atom   39 type  1   force =    -1.36714908   -4.22473633   -2.84190155
     atom   40 type  1   force =    -1.15091234    0.66083011   -0.00595455
     atom   41 type  1   force =     4.65322095   -0.01601182    1.94826972
     atom   42 type  1   force =     2.12768253   -0.22269320   -1.32653154
     atom   43 type  1   force =    -0.41477524   -0.78422412    2.05566357
     atom   44 type  1   force =    -4.72822519    1.41322409    0.24252901
     atom   45 type  2   force =     3.53466334    7.01816183   10.76012170
     atom   46 type  2   force =     1.25161045   -9.90611472   -1.66207675
     atom   47 type  2   force =    -4.97285416    4.79930713    0.49758566
     atom   48 type  2   force =    12.22948218   -5.60190631    0.81342039
     atom   49 type  2   force =     9.65826001   11.07575228   -1.61141594
     atom   50 type  2   force =    -3.20752607   -7.56406930  -10.58686562
     atom   51 type  2   force =    -5.49869638    8.77475687   -3.27845586
     atom   52 type  2   force =    10.25378899   -1.21765839   -5.68239288
     atom   53 type  2   force =    -8.99015734   -0.95440260    7.42535924
     atom   54 type  2   force =     0.64373869   12.00816264   -7.88890472
     atom   55 type  2   force =   -10.04418249   -4.42536082   -9.21819977
     atom   56 type  2   force =     1.30804620   -2.09932391  -10.52974798
     atom   57 type  2   force =    -1.03774432   -7.48927102    9.70985769
     atom   58 type  2   force =     0.30242099   -6.25234896    5.80752082
     atom   59 type  2   force =     4.30897322   -1.01375425  -12.98328936
     atom   60 type  2   force =    -4.38582390    9.20840109    4.30199146
     atom   61 type  2   force =    -7.24808594   -5.52904314    5.86974261
     atom   62 type  2   force =    10.06105783   -3.48378114   -2.79248467
     atom   63 type  2   force =    -4.29171244    9.21194381    7.15883261
     atom   64 type  2   force =    -4.24781171  -13.09908800    5.86122835
     atom   65 type  2   force =     9.92158420   -0.59825032    9.25235445
     atom   66 type  2   force =    -9.54691319    5.91736960   -1.45466403
     The core correction contribution to forces
     atom    1 type  1   force =     0.00000000    0.00000000    0.00000000
     atom    2 type  1   force =     0.00000000    0.00000000    0.00000000
     atom    3 type  1   force =     0.00000000    0.00000000    0.00000000
     atom    4 type  1   force =     0.00000000    0.00000000    0.00000000
     atom    5 type  1   force =     0.00000000    0.00000000    0.00000000
     atom    6 type  1   force =     0.00000000    0.00000000    0.00000000
     atom    7 type  1   force =     0.00000000    0.00000000    0.00000000
     atom    8 type  1   force =     0.00000000    0.00000000    0.00000000
     atom    9 type  1   force =     0.00000000    0.00000000    0.00000000
     atom   10 type  1   force =     0.00000000    0.00000000    0.00000000
     atom   11 type  1   force =     0.00000000    0.00000000    0.00000000
     atom   12 type  1   force =     0.00000000    0.00000000    0.00000000
     atom   13 type  1   force =     0.00000000    0.00000000    0.00000000
     atom   14 type  1   force =     0.00000000    0.00000000    0.00000000
     atom   15 type  1   force =     0.00000000    0.00000000    0.00000000
     atom   16 type  1   force =     0.00000000    0.00000000    0.00000000
     atom   17 type  1   force =     0.00000000    0.00000000    0.00000000
     atom   18 type  1   force =     0.00000000    0.00000000    0.00000000
     atom   19 type  1   force =     0.00000000    0.00000000    0.00000000
     atom   20 type  1   force =     0.00000000    0.00000000    0.00000000
     atom   21 type  1   force =     0.00000000    0.00000000    0.00000000
     atom   22 type  1   force =     0.00000000    0.00000000    0.00000000
     atom   23 type  1   force =     0.00000000    0.00000000    0.00000000
     atom   24 type  1   force =     0.00000000    0.00000000    0.00000000
     atom   25 type  1   force =     0.00000000    0.00000000    0.00000000
     atom   26 type  1   force =     0.00000000    0.00000000    0.00000000
     atom   27 type  1   force =     0.00000000    0.00000000    0.00000000
     atom   28 type  1   force =     0.00000000    0.00000000    0.00000000
     atom   29 type  1   force =     0.00000000    0.00000000    0.00000000
     atom   30 type  1   force =     0.00000000    0.00000000    0.00000000
     atom   31 type  1   force =     0.00000000    0.00000000    0.00000000
     atom   32 type  1   force =     0.00000000    0.00000000    0.00000000
     atom   33 type  1   force =     0.00000000    0.00000000    0.00000000
     atom   34 type  1   force =     0.00000000    0.00000000    0.00000000
     atom   35 type  1   force =     0.00000000    0.00000000    0.00000000
     atom   36 type  1   force =     0.00000000    0.00000000    0.00000000
     atom   37 type  1   force =     0.00000000    0.00000000    0.00000000
     atom   38 type  1   force =     0.00000000    0.00000000    0.00000000
     atom   39 type  1   force =     0.00000000    0.00000000    0.00000000
     atom   40 type  1   force =     0.00000000    0.00000000    0.00000000
     atom   41 type  1   force =     0.00000000    0.00000000    0.00000000
     atom   42 type  1   force =     0.00000000    0.00000000    0.00000000
     atom   43 type  1   force =     0.00000000    0.00000000    0.00000000
     atom   44 type  1   force =     0.00000000    0.00000000    0.00000000
     atom   45 type  2   force =     0.01873256   -0.00306489    0.01314359
     atom   46 type  2   force =    -0.00415608   -0.00008245    0.01658502
     atom   47 type  2   force =     0.00464794    0.01549712    0.00556582
     atom   48 type  2   force =    -0.00999432   -0.00900800   -0.01657846
     atom   49 type  2   force =    -0.01401386    0.01560827    0.00165717
     atom   50 type  2   force =    -0.01800393   -0.00441364   -0.01101436
     atom   51 type  2   force =    -0.01179152    0.01703532    0.00321874
     atom   52 type  2   force =     0.00467054   -0.00099885   -0.01993828
     atom   53 type  2   force =     0.00041881   -0.02088012   -0.00576962
     atom   54 type  2   force =    -0.01117391   -0.01600694    0.00059053
     atom   55 type  2   force =    -0.00158396    0.02056227    0.00773602
     atom   56 type  2   force =    -0.00999477   -0.00681842    0.01095201
     atom   57 type  2   force =     0.01087274   -0.00044698    0.01737883
     atom   58 type  2   force =     0.01782120    0.00191521    0.00518123
     atom   59 type  2   force =    -0.01775458    0.00893582   -0.00341799
     atom   60 type  2   force =     0.01374758    0.00304538    0.01378865
     atom   61 type  2   force =     0.01892200    0.00370675   -0.00345934
     atom   62 type  2   force =     0.00154404    0.01490368   -0.00845320
     atom   63 type  2   force =     0.01622762   -0.00748008    0.01318150
     atom   64 type  2   force =    -0.00506171    0.00666248   -0.01968888
     atom   65 type  2   force =     0.01998804   -0.00158489   -0.00988882
     atom   66 type  2   force =    -0.01312207   -0.00672881    0.01375250
     The Hubbard contrib.    to forces
     atom    1 type  1   force =     0.00000000    0.00000000    0.00000000
     atom    2 type  1   force =     0.00000000    0.00000000    0.00000000
     atom    3 type  1   force =     0.00000000    0.00000000    0.00000000
     atom    4 type  1   force =     0.00000000    0.00000000    0.00000000
     atom    5 type  1   force =     0.00000000    0.00000000    0.00000000
     atom    6 type  1   force =     0.00000000    0.00000000    0.00000000
     atom    7 type  1   force =     0.00000000    0.00000000    0.00000000
     atom    8 type  1   force =     0.00000000    0.00000000    0.00000000
     atom    9 type  1   force =     0.00000000    0.00000000    0.00000000
     atom   10 type  1   force =     0.00000000    0.00000000    0.00000000
     atom   11 type  1   force =     0.00000000    0.00000000    0.00000000
     atom   12 type  1   force =     0.00000000    0.00000000    0.00000000
     atom   13 type  1   force =     0.00000000    0.00000000    0.00000000
     atom   14 type  1   force =     0.00000000    0.00000000    0.00000000
     atom   15 type  1   force =     0.00000000    0.00000000    0.00000000
     atom   16 type  1   force =     0.00000000    0.00000000    0.00000000
     atom   17 type  1   force =     0.00000000    0.00000000    0.00000000
     atom   18 type  1   force =     0.00000000    0.00000000    0.00000000
     atom   19 type  1   force =     0.00000000    0.00000000    0.00000000
     atom   20 type  1   force =     0.00000000    0.00000000    0.00000000
     atom   21 type  1   force =     0.00000000    0.00000000    0.00000000
     atom   22 type  1   force =     0.00000000    0.00000000    0.00000000
     atom   23 type  1   force =     0.00000000    0.00000000    0.00000000
     atom   24 type  1   force =     0.00000000    0.00000000    0.00000000
     atom   25 type  1   force =     0.00000000    0.00000000    0.00000000
     atom   26 type  1   force =     0.00000000    0.00000000    0.00000000
     atom   27 type  1   force =     0.00000000    0.00000000    0.00000000
     atom   28 type  1   force =     0.00000000    0.00000000    0.00000000
     atom   29 type  1   force =     0.00000000    0.00000000    0.00000000
     atom   30 type  1   force =     0.00000000    0.00000000    0.00000000
     atom   31 type  1   force =     0.00000000    0.00000000    0.00000000
     atom   32 type  1   force =     0.00000000    0.00000000    0.00000000
     atom   33 type  1   force =     0.00000000    0.00000000    0.00000000
     atom   34 type  1   force =     0.00000000    0.00000000    0.00000000
     atom   35 type  1   force =     0.00000000    0.00000000    0.00000000
     atom   36 type  1   force =     0.00000000    0.00000000    0.00000000
     atom   37 type  1   force =     0.00000000    0.00000000    0.00000000
     atom   38 type  1   force =     0.00000000    0.00000000    0.00000000
     atom   39 type  1   force =     0.00000000    0.00000000    0.00000000
     atom   40 type  1   force =     0.00000000    0.00000000    0.00000000
     atom   41 type  1   force =     0.00000000    0.00000000    0.00000000
     atom   42 type  1   force =     0.00000000    0.00000000    0.00000000
     atom   43 type  1   force =     0.00000000    0.00000000    0.00000000
     atom   44 type  1   force =     0.00000000    0.00000000    0.00000000
     atom   45 type  2   force =     0.00000000    0.00000000    0.00000000
     atom   46 type  2   force =     0.00000000    0.00000000    0.00000000
     atom   47 type  2   force =     0.00000000    0.00000000    0.00000000
     atom   48 type  2   force =     0.00000000    0.00000000    0.00000000
     atom   49 type  2   force =     0.00000000    0.00000000    0.00000000
     atom   50 type  2   force =     0.00000000    0.00000000    0.00000000
     atom   51 type  2   force =     0.00000000    0.00000000    0.00000000
     atom   52 type  2   force =     0.00000000    0.00000000    0.00000000
     atom   53 type  2   force =     0.00000000    0.00000000    0.00000000
     atom   54 type  2   force =     0.00000000    0.00000000    0.00000000
     atom   55 type  2   force =     0.00000000    0.00000000    0.00000000
     atom   56 type  2   force =     0.00000000    0.00000000    0.00000000
     atom   57 type  2   force =     0.00000000    0.00000000    0.00000000
     atom   58 type  2   force =     0.00000000    0.00000000    0.00000000
     atom   59 type  2   force =     0.00000000    0.00000000    0.00000000
     atom   60 type  2   force =     0.00000000    0.00000000    0.00000000
     atom   61 type  2   force =     0.00000000    0.00000000    0.00000000
     atom   62 type  2   force =     0.00000000    0.00000000    0.00000000
     atom   63 type  2   force =     0.00000000    0.00000000    0.00000000
     atom   64 type  2   force =     0.00000000    0.00000000    0.00000000
     atom   65 type  2   force =     0.00000000    0.00000000    0.00000000
     atom   66 type  2   force =     0.00000000    0.00000000    0.00000000
     The SCF correction term to forces
     atom    1 type  1   force =     0.00005819   -0.00000250   -0.00001843
     atom    2 type  1   force =     0.00000280   -0.00001409    0.00006237
     atom    3 type  1   force =     0.00000928   -0.00000592    0.00002533
     atom    4 type  1   force =    -0.00002580    0.00000314    0.00001938
     atom    5 type  1   force =    -0.00001519    0.00002988    0.00000215
     atom    6 type  1   force =     0.00000410   -0.00000013    0.00000617
     atom    7 type  1   force =    -0.00001042   -0.00001585   -0.00002252
     atom    8 type  1   force =    -0.00001248   -0.00000461   -0.00000734
     atom    9 type  1   force =    -0.00000236    0.00003420    0.00002311
     atom   10 type  1   force =    -0.00000847    0.00001507   -0.00000145
     atom   11 type  1   force =    -0.00003896   -0.00000057    0.00000286
     atom   12 type  1   force =    -0.00001839   -0.00001630   -0.00004230
     atom   13 type  1   force =     0.00000633    0.00003660   -0.00000915
     atom   14 type  1   force =    -0.00001542    0.00000093    0.00000710
     atom   15 type  1   force =    -0.00000275    0.00001640   -0.00002767
     atom   16 type  1   force =     0.00003573   -0.00001249   -0.00002663
     atom   17 type  1   force =    -0.00002579   -0.00003828   -0.00000659
     atom   18 type  1   force =     0.00000873   -0.00002533   -0.00000187
     atom   19 type  1   force =    -0.00002022   -0.00003444   -0.00002565
     atom   20 type  1   force =    -0.00003249   -0.00002432    0.00002265
     atom   21 type  1   force =     0.00000689    0.00001653    0.00000283
     atom   22 type  1   force =    -0.00001625    0.00002294    0.00000413
     atom   23 type  1   force =    -0.00000491    0.00000462    0.00004740
     atom   24 type  1   force =    -0.00004556   -0.00001008    0.00000069
     atom   25 type  1   force =    -0.00000551    0.00000565    0.00004244
     atom   26 type  1   force =     0.00003051   -0.00000777    0.00000685
     atom   27 type  1   force =     0.00004014    0.00000594   -0.00000603
     atom   28 type  1   force =     0.00003440    0.00001170    0.00002592
     atom   29 type  1   force =    -0.00001476    0.00002981   -0.00003202
     atom   30 type  1   force =    -0.00001467   -0.00000368   -0.00000743
     atom   31 type  1   force =     0.00002696    0.00004363    0.00003401
     atom   32 type  1   force =     0.00004816   -0.00001837    0.00001777
     atom   33 type  1   force =     0.00001810    0.00003464    0.00000851
     atom   34 type  1   force =     0.00001842   -0.00002297   -0.00001673
     atom   35 type  1   force =     0.00000946    0.00001172   -0.00001489
     atom   36 type  1   force =    -0.00000297    0.00001839    0.00002287
     atom   37 type  1   force =     0.00002409    0.00001494    0.00002123
     atom   38 type  1   force =     0.00002386   -0.00003266    0.00001746
     atom   39 type  1   force =    -0.00001364   -0.00001750   -0.00005122
     atom   40 type  1   force =    -0.00000850    0.00002673   -0.00002247
     atom   41 type  1   force =     0.00001861    0.00000164    0.00000151
     atom   42 type  1   force =     0.00000867    0.00000430   -0.00000049
     atom   43 type  1   force =     0.00000304   -0.00002007    0.00002092
     atom   44 type  1   force =    -0.00004891    0.00000369    0.00001200
     atom   45 type  2   force =     0.00005103   -0.00003889    0.00013083
     atom   46 type  2   force =    -0.00009306   -0.00002478    0.00020289
     atom   47 type  2   force =    -0.00000946    0.00009890    0.00002972
     atom   48 type  2   force =    -0.00018870   -0.00006365   -0.00024291
     atom   49 type  2   force =    -0.00005791    0.00022203    0.00013837
     atom   50 type  2   force =    -0.00019196   -0.00004409   -0.00013211
     atom   51 type  2   force =    -0.00001848    0.00016387   -0.00002805
     atom   52 type  2   force =     0.00015729   -0.00004174   -0.00021414
     atom   53 type  2   force =    -0.00002706   -0.00030180   -0.00008200
     atom   54 type  2   force =    -0.00022921   -0.00025052    0.00002327
     atom   55 type  2   force =    -0.00005744    0.00027673    0.00010343
     atom   56 type  2   force =    -0.00018178   -0.00003664    0.00017847
     atom   57 type  2   force =     0.00007946    0.00001501    0.00018449
     atom   58 type  2   force =     0.00023589    0.00004228    0.00003336
     atom   59 type  2   force =    -0.00012877    0.00013701   -0.00015737
     atom   60 type  2   force =     0.00024731    0.00003424    0.00014418
     atom   61 type  2   force =     0.00010645    0.00007453    0.00000571
     atom   62 type  2   force =    -0.00000421    0.00017755    0.00010171
     atom   63 type  2   force =     0.00026460   -0.00007772    0.00019413
     atom   64 type  2   force =    -0.00005919    0.00004151   -0.00031089
     atom   65 type  2   force =     0.00023409   -0.00003227   -0.00004727
     atom   66 type  2   force =    -0.00018497   -0.00007993    0.00016431

     Total force =     0.524356     Total SCF correction =     0.001221


     Computing stress (Cartesian axis) and pressure


     negative rho (up, down):  5.098E-01 0.000E+00
          total   stress  (Ry/bohr**3)                   (kbar)     P=       -2.92
  -0.00002008   0.00000024  -0.00000009           -2.95        0.04       -0.01
   0.00000024  -0.00001972   0.00000012            0.04       -2.90        0.02
  -0.00000009   0.00000012  -0.00001979           -0.01        0.02       -2.91


     init_run     :      7.53s CPU      7.97s WALL (       1 calls)
     electrons    :     73.27s CPU     78.59s WALL (       1 calls)
     forces       :      6.39s CPU      6.71s WALL (       1 calls)
     stress       :     17.49s CPU     17.83s WALL (       1 calls)

     Called by init_run:
     wfcinit      :      2.78s CPU      2.97s WALL (       1 calls)
     potinit      :      1.26s CPU      1.33s WALL (       1 calls)
     hinit0       :      0.99s CPU      1.06s WALL (       1 calls)

     Called by electrons:
     c_bands      :     48.53s CPU     51.31s WALL (      10 calls)
     sum_band     :     13.97s CPU     15.22s WALL (      10 calls)
     v_of_rho     :      6.52s CPU      7.01s WALL (      11 calls)
     newd         :      2.96s CPU      3.75s WALL (      11 calls)
     PAW_pot      :      1.07s CPU      1.08s WALL (      11 calls)
     mix_rho      :      0.97s CPU      1.06s WALL (      10 calls)

     Called by c_bands:
     init_us_2    :      0.66s CPU      0.68s WALL (      21 calls)
     init_us_2:cp :      0.66s CPU      0.68s WALL (      21 calls)
     regterg      :     47.63s CPU     50.40s WALL (      10 calls)

     Called by *egterg:
     rdiaghg      :      0.23s CPU      0.23s WALL (      31 calls)
     h_psi        :     42.77s CPU     45.20s WALL (      32 calls)
     s_psi        :      1.38s CPU      1.38s WALL (      32 calls)
     g_psi        :      0.14s CPU      0.14s WALL (      21 calls)

     Called by h_psi:
     h_psi:calbec :      1.35s CPU      1.36s WALL (      32 calls)
     vloc_psi     :     39.67s CPU     42.09s WALL (      32 calls)
     add_vuspsi   :      1.38s CPU      1.38s WALL (      32 calls)

     General routines
     calbec       :      2.15s CPU      2.16s WALL (      47 calls)
     fft          :      3.71s CPU      4.23s WALL (     119 calls)
     ffts         :      0.24s CPU      0.27s WALL (      10 calls)
     fftw         :     35.05s CPU     37.87s WALL (    2884 calls)

     Parallel routines

     PWSCF        :   1m44.80s CPU   1m51.26s WALL


   This run was terminated on:  23:55:54  27Mar2024            

=------------------------------------------------------------------------------=
   JOB DONE.
=------------------------------------------------------------------------------=
