
     Program PWSCF v.7.2 starts on 27Mar2024 at 22:38:33 

     This program is part of the open-source Quantum ESPRESSO suite
     for quantum simulation of materials; please cite
         "P. Giannozzi et al., J. Phys.:Condens. Matter 21 395502 (2009);
         "P. Giannozzi et al., J. Phys.:Condens. Matter 29 465901 (2017);
         "P. Giannozzi et al., J. Chem. Phys. 152 154105 (2020);
          URL http://www.quantum-espresso.org", 
     in publications or presentations arising from this work. More details at
     http://www.quantum-espresso.org/quote

     Parallel version (MPI), running on    32 processors

     MPI processes distributed on     1 nodes
     175119 MiB available memory on the printing compute node when the environment starts

     Reading input from pw-wt-402.in
Warning: card &CELL ignored
Warning: card / ignored

     Current dimensions of program PWSCF are:
     Max number of different atomic species (ntypx) = 10
     Max number of k-points (npk) =  40000
     Max angular momentum in pseudopotentials (lmaxx) =  4
     file O.pbe-n-kjpaw_psl.0.1.UPF: wavefunction(s)  2P renormalized

     IMPORTANT: XC functional enforced from input :
     Exchange-correlation= PBE
                           (   1   4   3   4   0   0   0)
     Any further DFT definition will be discarded
     Please, verify this is what you really want


     gamma-point specific algorithms are used

     R & G space division:  proc/nbgrp/npool/nimage =      32
     Subspace diagonalization in iterative solution of the eigenvalue problem:
     a serial algorithm will be used


     Parallelization info
     --------------------
     sticks:   dense  smooth     PW     G-vecs:    dense   smooth      PW
     Min        1707    1707    426               301015   301015   37634
     Max        1710    1710    428               301034   301034   37648
     Sum       54693   54693  13673              9632757  9632757 1204469

     Using Slab Decomposition



     bravais-lattice index     =            0
     lattice parameter (alat)  =      75.7119  a.u.
     unit-cell volume          =  434002.3113 (a.u.)^3
     number of atoms/cell      =           66
     number of atomic types    =            2
     number of electrons       =       176.00
     number of Kohn-Sham states=           88
     kinetic-energy cutoff     =      30.0000  Ry
     charge density cutoff     =     120.0000  Ry
     scf convergence threshold =      1.0E-06
     mixing beta               =       0.5000
     number of iterations used =            8  plain     mixing
     Exchange-correlation= PBE
                           (   1   4   3   4   0   0   0)

     celldm(1)=  75.711877  celldm(2)=   0.000000  celldm(3)=   0.000000
     celldm(4)=   0.000000  celldm(5)=   0.000000  celldm(6)=   0.000000

     crystal axes: (cart. coord. in units of alat)
               a(1) = (   1.000000   0.000000   0.000000 )  
               a(2) = (   0.000000   1.000000   0.000000 )  
               a(3) = (   0.000000   0.000000   1.000000 )  

     reciprocal axes: (cart. coord. in units 2 pi/alat)
               b(1) = (  1.000000  0.000000  0.000000 )  
               b(2) = (  0.000000  1.000000  0.000000 )  
               b(3) = (  0.000000  0.000000  1.000000 )  


     PseudoPot. # 1 for H  read from file:
     /share/pfaendtnergroup/rverma7/QE_PP/H.pbe-rrkjus_psl.1.0.0.UPF
     MD5 check sum: f52b6d4d1c606e5624b1dc7b2218f220
     Pseudo is Ultrasoft, Zval =  1.0
     Generated using "atomic" code by A. Dal Corso  v.5.1
     Using radial grid of  929 points,  2 beta functions with: 
                l(1) =   0
                l(2) =   0
     Q(r) pseudized with 0 coefficients 


     PseudoPot. # 2 for O  read from file:
     /share/pfaendtnergroup/rverma7/QE_PP/O.pbe-n-kjpaw_psl.0.1.UPF
     MD5 check sum: 0234752ac141de4415c5fc33072bef88
     Pseudo is Projector augmented-wave + core cor, Zval =  6.0
     Generated using "atomic" code by A. Dal Corso  v.5.0.99 svn rev. 10869
     Shape of augmentation charge: BESSEL
     Using radial grid of 1095 points,  4 beta functions with: 
                l(1) =   0
                l(2) =   0
                l(3) =   1
                l(4) =   1
     Q(r) pseudized with 0 coefficients 


     atomic species   valence    mass     pseudopotential
        H              1.00     1.00800     H ( 1.00)
        O              6.00    15.99900     O ( 1.00)

     No symmetry found



   Cartesian axes

     site n.     atom                  positions (alat units)
         1           H   tau(   1) = (   0.1388993   0.2217896   0.3609385  )
         2           H   tau(   2) = (   0.1753401   0.2172969   0.3815300  )
         3           H   tau(   3) = (   0.2903532   0.3567952   0.3520030  )
         4           H   tau(   4) = (   0.3185823   0.3347061   0.3289405  )
         5           H   tau(   5) = (   0.2294272   0.2362661   0.3523025  )
         6           H   tau(   6) = (   0.2384126   0.2163235   0.3863222  )
         7           H   tau(   7) = (   0.3102459   0.2688881   0.4807688  )
         8           H   tau(   8) = (   0.3021340   0.2736054   0.4418071  )
         9           H   tau(   9) = (   0.2985898   0.2089854   0.4784974  )
        10           H   tau(  10) = (   0.2803944   0.1733683   0.4739798  )
        11           H   tau(  11) = (   0.3249969   0.1402721   0.4002246  )
        12           H   tau(  12) = (   0.3147885   0.1084488   0.3778610  )
        13           H   tau(  13) = (   0.3597654   0.1924872   0.4214651  )
        14           H   tau(  14) = (   0.3256209   0.1766879   0.4353426  )
        15           H   tau(  15) = (   0.2878822   0.2542868   0.2936977  )
        16           H   tau(  16) = (   0.3101211   0.2443529   0.3257207  )
        17           H   tau(  17) = (   0.4082117   0.3023087   0.3827281  )
        18           H   tau(  18) = (   0.4497941   0.3114689   0.3866217  )
        19           H   tau(  19) = (   0.3129165   0.3108449   0.3903906  )
        20           H   tau(  20) = (   0.3158867   0.2724073   0.3874704  )
        21           H   tau(  21) = (   0.2689130   0.1350555   0.4194933  )
        22           H   tau(  22) = (   0.2309996   0.1208786   0.4312742  )
        23           H   tau(  23) = (   0.2573069   0.2490703   0.4543866  )
        24           H   tau(  24) = (   0.2194684   0.2654686   0.4481717  )
        25           H   tau(  25) = (   0.2115063   0.2976413   0.3500062  )
        26           H   tau(  26) = (   0.1882940   0.2645950   0.3458131  )
        27           H   tau(  27) = (   0.3403719   0.2730313   0.2889804  )
        28           H   tau(  28) = (   0.3729440   0.2712342   0.2700362  )
        29           H   tau(  29) = (   0.3626607   0.2509422   0.5130912  )
        30           H   tau(  30) = (   0.3650568   0.2747036   0.4816423  )
        31           H   tau(  31) = (   0.2157494   0.1712717   0.4158992  )
        32           H   tau(  32) = (   0.2162985   0.2098091   0.4276301  )
        33           H   tau(  33) = (   0.3822788   0.2398353   0.4449769  )
        34           H   tau(  34) = (   0.4100337   0.2164483   0.4306003  )
        35           H   tau(  35) = (   0.2437289   0.2766255   0.3982778  )
        36           H   tau(  36) = (   0.2681393   0.3041557   0.3779359  )
        37           H   tau(  37) = (   0.3280919   0.2110071   0.3789093  )
        38           H   tau(  38) = (   0.2909272   0.2241857   0.3681018  )
        39           H   tau(  39) = (   0.3607138   0.2720080   0.3680020  )
        40           H   tau(  40) = (   0.3761138   0.2862099   0.3330588  )
        41           H   tau(  41) = (   0.2301510   0.2633970   0.2670910  )
        42           H   tau(  42) = (   0.2388618   0.2708349   0.3044553  )
        43           H   tau(  43) = (   0.3676526   0.2882815   0.4323974  )
        44           H   tau(  44) = (   0.4069138   0.2912767   0.4373892  )
        45           O   tau(  45) = (   0.1635842   0.2295520   0.3642830  )
        46           O   tau(  46) = (   0.3016348   0.3338076   0.3482840  )
        47           O   tau(  47) = (   0.2484463   0.2320230   0.3693498  )
        48           O   tau(  48) = (   0.2940721   0.2601772   0.4622738  )
        49           O   tau(  49) = (   0.3029577   0.1856982   0.4701610  )
        50           O   tau(  50) = (   0.3039062   0.1236990   0.3949582  )
        51           O   tau(  51) = (   0.3420691   0.1752153   0.4162236  )
        52           O   tau(  52) = (   0.3101460   0.2557344   0.3025334  )
        53           O   tau(  53) = (   0.4278547   0.3080993   0.3989767  )
        54           O   tau(  54) = (   0.3155872   0.2898540   0.4045426  )
        55           O   tau(  55) = (   0.2459753   0.1404468   0.4300761  )
        56           O   tau(  56) = (   0.2335205   0.2469237   0.4416323  )
        57           O   tau(  57) = (   0.2026457   0.2818170   0.3337077  )
        58           O   tau(  58) = (   0.3630101   0.2859354   0.2861350  )
        59           O   tau(  59) = (   0.3486584   0.2683389   0.5019344  )
        60           O   tau(  60) = (   0.2025958   0.1928117   0.4123050  )
        61           O   tau(  61) = (   0.3862723   0.2152752   0.4387371  )
        62           O   tau(  62) = (   0.2445276   0.3016598   0.3893673  )
        63           O   tau(  63) = (   0.3162611   0.2303008   0.3686260  )
        64           O   tau(  64) = (   0.3794584   0.2839136   0.3572445  )
        65           O   tau(  65) = (   0.2441033   0.2546113   0.2851866  )
        66           O   tau(  66) = (   0.3853238   0.2843879   0.4488456  )

     number of k points=     1
                       cart. coord. in units 2pi/alat
        k(    1) = (   0.0000000   0.0000000   0.0000000), wk =   2.0000000

     Dense  grid:  4816379 G-vectors     FFT dimensions: ( 270, 270, 270)

     Estimated max dynamical RAM per process >     612.29 MB

     Estimated total dynamical RAM >      19.13 GB

     Check: negative core charge=   -0.000006

     Initial potential from superposition of free atoms

     starting charge     175.9995, renormalised to     176.0000

     negative rho (up, down):  3.756E-01 0.000E+00
     Starting wfcs are  132 randomized atomic wfcs
     Checking if some PAW data can be deallocated... 

     total cpu time spent up to now is        8.0 secs

     Self-consistent Calculation

     iteration #  1     ecut=    30.00 Ry     beta= 0.50
     Davidson diagonalization with overlap
     ethr =  1.00E-02,  avg # of iterations =  2.0

     negative rho (up, down):  4.444E-01 0.000E+00

     total cpu time spent up to now is       16.0 secs

     total energy              =    -965.73415860 Ry
     estimated scf accuracy    <       6.96943528 Ry

     iteration #  2     ecut=    30.00 Ry     beta= 0.50
     Davidson diagonalization with overlap
     ethr =  3.96E-03,  avg # of iterations =  2.0

     negative rho (up, down):  4.644E-01 0.000E+00

     total cpu time spent up to now is       24.3 secs

     total energy              =    -967.69985181 Ry
     estimated scf accuracy    <       1.04737441 Ry

     iteration #  3     ecut=    30.00 Ry     beta= 0.50
     Davidson diagonalization with overlap
     ethr =  5.95E-04,  avg # of iterations =  2.0

     negative rho (up, down):  5.085E-01 0.000E+00

     total cpu time spent up to now is       31.7 secs

     total energy              =    -967.75746728 Ry
     estimated scf accuracy    <       0.13244525 Ry

     iteration #  4     ecut=    30.00 Ry     beta= 0.50
     Davidson diagonalization with overlap
     ethr =  7.53E-05,  avg # of iterations =  3.0

     negative rho (up, down):  5.093E-01 0.000E+00

     total cpu time spent up to now is       40.2 secs

     total energy              =    -967.78147636 Ry
     estimated scf accuracy    <       0.03933837 Ry

     iteration #  5     ecut=    30.00 Ry     beta= 0.50
     Davidson diagonalization with overlap
     ethr =  2.24E-05,  avg # of iterations =  2.0

     negative rho (up, down):  5.083E-01 0.000E+00

     total cpu time spent up to now is       47.0 secs

     total energy              =    -967.78185830 Ry
     estimated scf accuracy    <       0.00799489 Ry

     iteration #  6     ecut=    30.00 Ry     beta= 0.50
     Davidson diagonalization with overlap
     ethr =  4.54E-06,  avg # of iterations =  2.0

     negative rho (up, down):  5.078E-01 0.000E+00

     total cpu time spent up to now is       56.2 secs

     total energy              =    -967.78201727 Ry
     estimated scf accuracy    <       0.00184950 Ry

     iteration #  7     ecut=    30.00 Ry     beta= 0.50
     Davidson diagonalization with overlap
     ethr =  1.05E-06,  avg # of iterations =  2.0

     negative rho (up, down):  5.074E-01 0.000E+00

     total cpu time spent up to now is       64.3 secs

     total energy              =    -967.78211222 Ry
     estimated scf accuracy    <       0.00036344 Ry

     iteration #  8     ecut=    30.00 Ry     beta= 0.50
     Davidson diagonalization with overlap
     ethr =  2.07E-07,  avg # of iterations =  2.0

     negative rho (up, down):  5.073E-01 0.000E+00

     total cpu time spent up to now is       72.4 secs

     total energy              =    -967.78219707 Ry
     estimated scf accuracy    <       0.00002563 Ry

     iteration #  9     ecut=    30.00 Ry     beta= 0.50
     Davidson diagonalization with overlap
     ethr =  1.46E-08,  avg # of iterations =  3.0

     negative rho (up, down):  5.073E-01 0.000E+00

     total cpu time spent up to now is       80.4 secs

     total energy              =    -967.78219781 Ry
     estimated scf accuracy    <       0.00001450 Ry

     iteration # 10     ecut=    30.00 Ry     beta= 0.50
     Davidson diagonalization with overlap
     ethr =  8.24E-09,  avg # of iterations =  2.0

     negative rho (up, down):  5.074E-01 0.000E+00

     total cpu time spent up to now is       87.4 secs

     total energy              =    -967.78219803 Ry
     estimated scf accuracy    <       0.00000218 Ry

     iteration # 11     ecut=    30.00 Ry     beta= 0.50
     Davidson diagonalization with overlap
     ethr =  1.24E-09,  avg # of iterations =  3.0

     negative rho (up, down):  5.074E-01 0.000E+00

     total cpu time spent up to now is       95.6 secs

     End of self-consistent calculation

          k = 0.0000 0.0000 0.0000 (602235 PWs)   bands (ev):

   -26.4588 -25.8887 -25.6405 -25.5949 -25.4019 -25.2753 -25.1438 -25.0612
   -25.0445 -25.0063 -24.9533 -24.8545 -24.8205 -24.7527 -24.6553 -24.4831
   -24.4728 -24.4447 -24.2780 -24.1194 -24.0468 -23.7315 -14.1558 -13.7800
   -13.5863 -13.3986 -13.2964 -13.2254 -13.1619 -13.1314 -13.0882 -13.0284
   -12.9495 -12.8507 -12.7698 -12.7132 -12.6398 -12.5084 -12.3615 -12.2534
   -12.1664 -11.8975 -11.7590 -11.7258 -11.2201 -10.8714 -10.6202 -10.3226
   -10.2624 -10.0483  -9.9742  -9.8761  -9.7284  -9.6193  -9.4616  -9.3880
    -9.2051  -9.1966  -9.0732  -8.8019  -8.6395  -8.5823  -8.4884  -8.4097
    -8.2024  -8.1387  -8.0846  -8.0209  -7.8651  -7.7166  -7.5880  -7.5069
    -7.4952  -7.3452  -7.3209  -7.2882  -7.2255  -7.1650  -7.1367  -7.1191
    -6.9788  -6.9384  -6.8794  -6.7644  -6.6908  -6.6508  -6.6312  -6.2254

     highest occupied level (ev):    -6.2254

!    total energy              =    -967.78219860 Ry
     estimated scf accuracy    <       0.00000007 Ry

     The total energy is the sum of the following terms:
     one-electron contribution =   -5827.93867396 Ry
     hartree contribution      =    2948.71172019 Ry
     xc contribution           =    -193.52904348 Ry
     ewald contribution        =    2314.28657037 Ry
     one-center paw contrib.   =    -209.31277171 Ry

     convergence has been achieved in  11 iterations

     negative rho (up, down):  5.074E-01 0.000E+00

     Forces acting on atoms (cartesian axes, Ry/au):

     atom    1 type  1   force =     0.10841204    0.02064168    0.02805313
     atom    2 type  1   force =    -0.00164205   -0.04150829    0.03310788
     atom    3 type  1   force =     0.05045413   -0.07288710   -0.02967588
     atom    4 type  1   force =    -0.05648151    0.01111211    0.05779079
     atom    5 type  1   force =     0.06343679   -0.01233221    0.04706261
     atom    6 type  1   force =    -0.00294922    0.01338860   -0.02704969
     atom    7 type  1   force =    -0.03727842   -0.03906222   -0.03192835
     atom    8 type  1   force =    -0.02601788   -0.02761412    0.02652191
     atom    9 type  1   force =     0.00914812   -0.02649060   -0.02532347
     atom   10 type  1   force =     0.07509339    0.03976471   -0.01769083
     atom   11 type  1   force =    -0.08020993   -0.04489793   -0.01093931
     atom   12 type  1   force =    -0.03928284    0.02847661    0.04035782
     atom   13 type  1   force =    -0.00450616   -0.02083567    0.00707892
     atom   14 type  1   force =     0.01810997    0.01239260   -0.01012408
     atom   15 type  1   force =    -0.05790850   -0.00407786   -0.02651874
     atom   16 type  1   force =     0.01086455    0.02262116   -0.05642204
     atom   17 type  1   force =     0.06128572    0.00738099    0.00943666
     atom   18 type  1   force =    -0.07018996   -0.01486810    0.02242148
     atom   19 type  1   force =     0.00983593   -0.02957082    0.02889957
     atom   20 type  1   force =    -0.00594675   -0.04381629   -0.00823288
     atom   21 type  1   force =    -0.05875602   -0.01762342    0.00495810
     atom   22 type  1   force =     0.03510231    0.00374804   -0.00798586
     atom   23 type  1   force =    -0.06971564    0.01738206   -0.03519261
     atom   24 type  1   force =    -0.00383257    0.01320306    0.01349502
     atom   25 type  1   force =     0.00661994   -0.00265467    0.03085817
     atom   26 type  1   force =     0.01437878    0.03570598   -0.01429435
     atom   27 type  1   force =     0.02461546    0.02851021    0.01569198
     atom   28 type  1   force =     0.03513619   -0.01291262   -0.02549322
     atom   29 type  1   force =    -0.03110344    0.01816687   -0.00778497
     atom   30 type  1   force =    -0.05271932   -0.00818607    0.07496631
     atom   31 type  1   force =    -0.01394987    0.02887116   -0.00740497
     atom   32 type  1   force =    -0.05418560   -0.04016801   -0.03781591
     atom   33 type  1   force =     0.00796012   -0.03905838   -0.01397718
     atom   34 type  1   force =    -0.04212409   -0.01004837    0.01086681
     atom   35 type  1   force =     0.01519748    0.09113299   -0.04044599
     atom   36 type  1   force =    -0.10290428   -0.02230439    0.04568670
     atom   37 type  1   force =    -0.01184320    0.00036484    0.00162525
     atom   38 type  1   force =     0.04363165    0.01732532    0.00672005
     atom   39 type  1   force =     0.01137215    0.00649740   -0.02789408
     atom   40 type  1   force =    -0.01580929   -0.01039531   -0.02726232
     atom   41 type  1   force =     0.00388036   -0.00304736    0.00188729
     atom   42 type  1   force =    -0.01376003   -0.04207581   -0.03824810
     atom   43 type  1   force =    -0.01005766    0.01195594   -0.01249017
     atom   44 type  1   force =    -0.02159762    0.00195698    0.00317802
     atom   45 type  2   force =    -0.09451960    0.01905151   -0.05758213
     atom   46 type  2   force =     0.00602451    0.05839007   -0.01948986
     atom   47 type  2   force =    -0.05474547   -0.01562679   -0.02642490
     atom   48 type  2   force =     0.05964855    0.05192599    0.01045466
     atom   49 type  2   force =    -0.09060724   -0.01721347    0.03984442
     atom   50 type  2   force =     0.11964021    0.02706640   -0.02208805
     atom   51 type  2   force =    -0.02493822   -0.00301082   -0.01346327
     atom   52 type  2   force =     0.03837699   -0.03234510    0.08279325
     atom   53 type  2   force =     0.00264635   -0.00102163   -0.02963441
     atom   54 type  2   force =     0.01802515    0.06597373   -0.01394862
     atom   55 type  2   force =     0.02106141    0.00687674   -0.00245924
     atom   56 type  2   force =     0.06919131   -0.02752919    0.02425188
     atom   57 type  2   force =    -0.02481180   -0.03681777   -0.01111595
     atom   58 type  2   force =    -0.04009448   -0.00148380    0.02385610
     atom   59 type  2   force =     0.08244834   -0.00006400   -0.04698447
     atom   60 type  2   force =     0.07288890    0.02899337    0.04732971
     atom   61 type  2   force =     0.05793470    0.06246379    0.00537178
     atom   62 type  2   force =     0.06820755   -0.05838535   -0.01320055
     atom   63 type  2   force =    -0.04257929   -0.00952795   -0.01021018
     atom   64 type  2   force =     0.00938397    0.00239431    0.04151793
     atom   65 type  2   force =    -0.00047884    0.04038659    0.03812281
     atom   66 type  2   force =     0.02753378   -0.00466035   -0.01741035
     The non-local contrib.  to forces
     atom    1 type  1   force =     0.08135356    0.02281505    0.01387302
     atom    2 type  1   force =    -0.05927233    0.05567446   -0.08065884
     atom    3 type  1   force =     0.04133537   -0.07739658   -0.01574728
     atom    4 type  1   force =    -0.06093462    0.00129869    0.06862212
     atom    5 type  1   force =     0.06382668   -0.01661202    0.05978195
     atom    6 type  1   force =     0.03733436    0.06067205   -0.06714504
     atom    7 type  1   force =    -0.05229425   -0.02693069   -0.06086977
     atom    8 type  1   force =    -0.02635148   -0.04561482    0.07088258
     atom    9 type  1   force =     0.01438936   -0.09379544   -0.03218616
     atom   10 type  1   force =     0.07514484    0.04421983   -0.01159715
     atom   11 type  1   force =    -0.05247678   -0.04244009   -0.01397026
     atom   12 type  1   force =    -0.03950831    0.05727804    0.06384142
     atom   13 type  1   force =    -0.06494686   -0.06206895   -0.01754795
     atom   14 type  1   force =     0.06301808   -0.00403934   -0.07169696
     atom   15 type  1   force =     0.10772052    0.00619846    0.04544609
     atom   16 type  1   force =    -0.00256737    0.03860474   -0.07919836
     atom   17 type  1   force =     0.06438107    0.01831107    0.04894572
     atom   18 type  1   force =    -0.08291128   -0.01359734    0.04286958
     atom   19 type  1   force =     0.00928065   -0.07888909    0.05160695
     atom   20 type  1   force =    -0.00072326    0.08069451    0.07487447
     atom   21 type  1   force =    -0.07973501    0.01484046    0.03587869
     atom   22 type  1   force =     0.06707499    0.08124931   -0.00698313
     atom   23 type  1   force =    -0.06062724   -0.00274219   -0.03121431
     atom   24 type  1   force =     0.06793753   -0.08678912   -0.02868558
     atom   25 type  1   force =    -0.04256070   -0.07374372   -0.07206999
     atom   26 type  1   force =     0.05461158    0.06429921   -0.04095761
     atom   27 type  1   force =     0.06683490    0.03654498   -0.00835836
     atom   28 type  1   force =    -0.04887091    0.07029878    0.07846126
     atom   29 type  1   force =    -0.05553284    0.06985560   -0.04652327
     atom   30 type  1   force =    -0.04376775   -0.01927123    0.05450394
     atom   31 type  1   force =    -0.04717776    0.07874092   -0.01260263
     atom   32 type  1   force =    -0.03757582   -0.05004082   -0.04411995
     atom   33 type  1   force =     0.01544222   -0.08551222   -0.02315060
     atom   34 type  1   force =    -0.09325292   -0.00238584    0.03181290
     atom   35 type  1   force =     0.00487693    0.07510012   -0.02767403
     atom   36 type  1   force =    -0.07258898   -0.01044311    0.03639544
     atom   37 type  1   force =    -0.05066257    0.07953816   -0.04311703
     atom   38 type  1   force =     0.08249746    0.01772124    0.00294083
     atom   39 type  1   force =     0.07875462    0.05128778   -0.04910178
     atom   40 type  1   force =     0.01127858   -0.01152588    0.10778329
     atom   41 type  1   force =     0.06171724   -0.03679730    0.08163277
     atom   42 type  1   force =     0.01839031   -0.05559136   -0.06959574
     atom   43 type  1   force =     0.08206094   -0.01734603    0.07266443
     atom   44 type  1   force =    -0.08244097   -0.02609580    0.04141130
     atom   45 type  2   force =    -0.90594091   -1.40721457    1.01523653
     atom   46 type  2   force =     0.48062042    1.80008836   -1.02864604
     atom   47 type  2   force =    -1.74888555   -0.90575978   -0.06059855
     atom   48 type  2   force =     1.17864896    1.25293286   -0.10949831
     atom   49 type  2   force =    -1.87465508    0.77566220    0.74109308
     atom   50 type  2   force =     1.83281111   -0.18521462   -0.84301927
     atom   51 type  2   force =    -0.07232817    1.01577711    1.29905172
     atom   52 type  2   force =    -1.35823135   -0.70329097    0.78611804
     atom   53 type  2   force =     0.39204873   -0.21874412   -1.85101893
     atom   54 type  2   force =    -0.07379047    0.20631957   -1.94183562
     atom   55 type  2   force =     0.28309616   -1.85081467   -0.65358056
     atom   56 type  2   force =     0.12922419    1.38402263    1.19451209
     atom   57 type  2   force =    -0.18895523   -0.08158801    2.00177879
     atom   58 type  2   force =    -0.36930735   -1.83130200   -0.93411501
     atom   59 type  2   force =     1.81149904   -0.98591225   -0.46855445
     atom   60 type  2   force =     1.67888725   -0.31343918    0.95519490
     atom   61 type  2   force =     1.33878317    1.61069123   -0.37456905
     atom   62 type  2   force =     1.51257880   -1.43444792   -0.29875734
     atom   63 type  2   force =    -0.65446654   -1.54858694    0.59827659
     atom   64 type  2   force =    -1.57101945   -0.59974228   -0.76297317
     atom   65 type  2   force =    -1.18614548    1.82881416   -0.15666961
     atom   66 type  2   force =     0.04324830    0.47552274   -1.79901527
     The ionic contribution  to forces
     atom    1 type  1   force =    -4.98613544   -1.22078305   -0.84043183
     atom    2 type  1   force =    -0.96153456   -2.09604712    1.97789973
     atom    3 type  1   force =    -1.57277644    5.15580426   -0.10734869
     atom    4 type  1   force =     2.27463511    2.29122282   -3.48851052
     atom    5 type  1   force =    -3.11672412   -0.47186908   -3.04882754
     atom    6 type  1   force =    -1.87541863   -2.89053573    1.34191964
     atom    7 type  1   force =     0.85996577    1.88316008    4.05206802
     atom    8 type  1   force =     0.50973949    2.42532954   -0.29696516
     atom    9 type  1   force =    -0.65386584    1.77216640    3.41555063
     atom   10 type  1   force =    -2.92265142   -2.79138519    2.55773398
     atom   11 type  1   force =     2.51900233   -1.20706077   -0.21508789
     atom   12 type  1   force =     1.70873368   -4.03116034   -2.92482181
     atom   13 type  1   force =     3.18692849    0.00963309    0.34587922
     atom   14 type  1   force =    -0.90809255   -1.64148105    2.60337771
     atom   15 type  1   force =    -2.62138351   -0.45329074   -3.49786971
     atom   16 type  1   force =     0.45751406   -1.85407162    0.29195748
     atom   17 type  1   force =     0.26531012    0.84243589   -1.77290883
     atom   18 type  1   force =     4.75753839    1.25844659   -1.69657186
     atom   19 type  1   force =     0.20085650    4.61646664   -0.90950602
     atom   20 type  1   force =     0.51098912   -1.21498126   -2.06826157
     atom   21 type  1   force =     1.54439714   -2.53881913   -0.58357462
     atom   22 type  1   force =    -3.14460605   -4.65508369    0.76714294
     atom   23 type  1   force =     0.19747804    0.26142311    3.01427773
     atom   24 type  1   force =    -4.00782724    3.57667914    2.71437889
     atom   25 type  1   force =    -0.79774348    3.96785005    1.20182524
     atom   26 type  1   force =    -3.70840589   -1.00343020    0.24731682
     atom   27 type  1   force =    -0.77605286   -0.58347368   -2.25119206
     atom   28 type  1   force =     2.87949633   -2.08146292   -4.39232600
     atom   29 type  1   force =     2.67475437   -2.32335005    3.93352183
     atom   30 type  1   force =     2.26403075    1.36278642    0.80237719
     atom   31 type  1   force =    -0.52737030   -3.80540249    0.55980349
     atom   32 type  1   force =    -0.78432920    0.43986805    2.63617426
     atom   33 type  1   force =     1.33233867    1.66693990    1.63025757
     atom   34 type  1   force =     5.39024514   -0.94876764   -0.68522398
     atom   35 type  1   force =    -1.52935796   -0.80880456    1.39049378
     atom   36 type  1   force =     1.20538696    2.27010265   -1.27938281
     atom   37 type  1   force =     2.45564874   -3.58318896    0.13917806
     atom   38 type  1   force =    -2.10808126   -1.99524347   -1.00404672
     atom   39 type  1   force =    -0.58735484   -1.23362992    0.61628357
     atom   40 type  1   force =     1.51607958    1.00102073   -4.05446743
     atom   41 type  1   force =    -2.85158651    1.28636445   -4.80703127
     atom   42 type  1   force =    -1.24441448    2.34458388   -0.05573356
     atom   43 type  1   force =    -1.13821693    1.95035109   -1.26485501
     atom   44 type  1   force =     4.39531495    1.64958317    0.09451241
     atom   45 type  2   force =   -13.66411992    0.05173041   -4.59237285
     atom   46 type  2   force =    -0.57676244   12.26518632   -4.28624545
     atom   47 type  2   force =    -2.85779156   -3.85260532   -5.37293829
     atom   48 type  2   force =    -4.38739867    2.43633104   12.48138153
     atom   49 type  2   force =     2.46388440   -9.31274066   11.66482420
     atom   50 type  2   force =    -0.93098578  -13.78668875   -2.46674080
     atom   51 type  2   force =     7.84600030  -12.47327785   -2.36749609
     atom   52 type  2   force =     3.89895897   -1.16786414  -13.58087395
     atom   53 type  2   force =    12.61735799    7.22824422    2.62851216
     atom   54 type  2   force =     2.79412647   10.01560600    6.57616669
     atom   55 type  2   force =    -6.22592183   -9.41555853    5.26704070
     atom   56 type  2   force =   -10.48744911    0.23338930    8.99265037
     atom   57 type  2   force =   -11.51788427    7.32576194  -10.43509117
     atom   58 type  2   force =     8.81288131    7.25929277  -10.77323639
     atom   59 type  2   force =     1.05203549    4.98591410   16.02102257
     atom   60 type  2   force =   -14.80487771   -7.29585251    1.81550726
     atom   61 type  2   force =    11.08287542   -8.43626278    5.23875338
     atom   62 type  2   force =   -10.48894870   14.90379798    2.90410897
     atom   63 type  2   force =     5.67059711   -4.12623866   -6.46857371
     atom   64 type  2   force =    12.89234309    4.23274322   -4.33472140
     atom   65 type  2   force =    -3.49577415   -3.99546209  -13.87424301
     atom   66 type  2   force =    10.02439938    6.32565868    9.87357996
     The local contribution  to forces
     atom    1 type  1   force =     5.01325071    1.21866534    0.85462030
     atom    2 type  1   force =     1.01919925    1.99892094   -1.86413470
     atom    3 type  1   force =     1.58193995   -5.15125753    0.09342698
     atom    4 type  1   force =    -2.27014824   -2.28136370    3.47769549
     atom    5 type  1   force =     3.11637903    0.47619781    3.03612002
     atom    6 type  1   force =     1.83517966    2.84330537   -1.30181752
     atom    7 type  1   force =    -0.84491412   -1.89524835   -4.02311952
     atom    8 type  1   force =    -0.50936935   -2.40728524    0.25261834
     atom    9 type  1   force =     0.64866728   -1.70481414   -3.40868210
     atom   10 type  1   force =     2.92264313    2.78697515   -2.56382391
     atom   11 type  1   force =    -2.54669464    1.20465308    0.21813192
     atom   12 type  1   force =    -1.70847251    4.00240578    2.90134906
     atom   13 type  1   force =    -3.12645201    0.03164170   -0.32123841
     atom   14 type  1   force =     0.86323270    1.65796071   -2.54179825
     atom   15 type  1   force =     2.45579168    0.44306363    3.42590882
     atom   16 type  1   force =    -0.44404087    1.83813736   -0.26917327
     atom   17 type  1   force =    -0.26836226   -0.85331685    1.73340910
     atom   18 type  1   force =    -4.74477916   -1.25966878    1.67613800
     atom   19 type  1   force =    -0.20026251   -4.56710007    0.88680641
     atom   20 type  1   force =    -0.51617347    1.09051680    1.98516730
     atom   21 type  1   force =    -1.52339117    2.50640655    0.55266910
     atom   22 type  1   force =     3.11268776    4.57764893   -0.76813872
     atom   23 type  1   force =    -0.20653401   -0.24125241   -3.01825214
     atom   24 type  1   force =     3.93610673   -3.47665441   -2.67219516
     atom   25 type  1   force =     0.84696052   -3.89671857   -1.09889638
     atom   26 type  1   force =     3.66821389    0.97489050   -0.22065116
     atom   27 type  1   force =     0.73388712    0.57549692    2.27524730
     atom   28 type  1   force =    -2.79545439    1.99831407    4.28839139
     atom   29 type  1   force =    -2.65029395    2.27171397   -3.89477524
     atom   30 type  1   force =    -2.27294635   -1.35165351   -0.78189949
     atom   31 type  1   force =     0.56063948    3.75558264   -0.55459373
     atom   32 type  1   force =     0.76775865   -0.42994812   -2.62985988
     atom   33 type  1   force =    -1.33978074   -1.62044931   -1.62107715
     atom   34 type  1   force =    -5.33908491    0.94114742    0.66428905
     atom   35 type  1   force =     1.53971805    0.82489412   -1.40325906
     atom   36 type  1   force =    -1.23567117   -2.28191228    1.28868521
     atom   37 type  1   force =    -2.41679243    3.50407399   -0.09442924
     atom   38 type  1   force =     2.06926249    1.99489955    1.00783671
     atom   39 type  1   force =     0.52002210    1.18889338   -0.59507408
     atom   40 type  1   force =    -1.54312421   -0.99984079    3.91943470
     atom   41 type  1   force =     2.79380151   -1.25257514    4.72730672
     atom   42 type  1   force =     1.21230451   -2.33102944    0.08707651
     atom   43 type  1   force =     1.04614794   -1.92099940    1.17971496
     atom   44 type  1   force =    -4.33443349   -1.62148036   -0.13273384
     atom   45 type  2   force =    14.46432953    1.35978312    3.52935611
     atom   46 type  2   force =     0.10725701  -13.98700345    5.28422032
     atom   47 type  2   force =     4.53483481    4.73346709    5.40670106
     atom   48 type  2   force =     3.28018452   -3.62464036  -12.36158545
     atom   49 type  2   force =    -0.69922961    8.52651963  -12.35788858
     atom   50 type  2   force =    -0.76306921   13.99687197    3.27887745
     atom   51 type  2   force =    -7.80027176   11.46353796    1.06742870
     atom   52 type  2   force =    -2.51554449    1.83128758   12.88514322
     atom   53 type  2   force =   -13.00191816   -7.01303644   -0.82599567
     atom   54 type  2   force =    -2.70292674  -10.15328968   -4.66683149
     atom   55 type  2   force =     5.96723702   11.25410854   -4.62254371
     atom   56 type  2   force =    10.42824982   -1.63125692  -10.15123383
     atom   57 type  2   force =    11.67978505   -7.28177297    8.44225766
     atom   58 type  2   force =    -8.48613495   -5.44693951   11.72163363
     atom   59 type  2   force =    -2.76314767   -4.00999399  -15.60431279
     atom   60 type  2   force =    13.21598190    7.63570401   -2.71389212
     atom   61 type  2   force =   -12.34960010    6.90357364   -4.86253621
     atom   62 type  2   force =     9.06035691  -13.54255384   -2.62160077
     atom   63 type  2   force =    -5.06595976    5.64980453    5.86619375
     atom   64 type  2   force =   -11.32741058   -3.63623462    5.13240261
     atom   65 type  2   force =     4.66974878    2.22494977   14.06632976
     atom   66 type  2   force =   -10.03897606   -6.80072670   -8.10926313
     The core correction contribution to forces
     atom    1 type  1   force =     0.00000000    0.00000000    0.00000000
     atom    2 type  1   force =     0.00000000    0.00000000    0.00000000
     atom    3 type  1   force =     0.00000000    0.00000000    0.00000000
     atom    4 type  1   force =     0.00000000    0.00000000    0.00000000
     atom    5 type  1   force =     0.00000000    0.00000000    0.00000000
     atom    6 type  1   force =     0.00000000    0.00000000    0.00000000
     atom    7 type  1   force =     0.00000000    0.00000000    0.00000000
     atom    8 type  1   force =     0.00000000    0.00000000    0.00000000
     atom    9 type  1   force =     0.00000000    0.00000000    0.00000000
     atom   10 type  1   force =     0.00000000    0.00000000    0.00000000
     atom   11 type  1   force =     0.00000000    0.00000000    0.00000000
     atom   12 type  1   force =     0.00000000    0.00000000    0.00000000
     atom   13 type  1   force =     0.00000000    0.00000000    0.00000000
     atom   14 type  1   force =     0.00000000    0.00000000    0.00000000
     atom   15 type  1   force =     0.00000000    0.00000000    0.00000000
     atom   16 type  1   force =     0.00000000    0.00000000    0.00000000
     atom   17 type  1   force =     0.00000000    0.00000000    0.00000000
     atom   18 type  1   force =     0.00000000    0.00000000    0.00000000
     atom   19 type  1   force =     0.00000000    0.00000000    0.00000000
     atom   20 type  1   force =     0.00000000    0.00000000    0.00000000
     atom   21 type  1   force =     0.00000000    0.00000000    0.00000000
     atom   22 type  1   force =     0.00000000    0.00000000    0.00000000
     atom   23 type  1   force =     0.00000000    0.00000000    0.00000000
     atom   24 type  1   force =     0.00000000    0.00000000    0.00000000
     atom   25 type  1   force =     0.00000000    0.00000000    0.00000000
     atom   26 type  1   force =     0.00000000    0.00000000    0.00000000
     atom   27 type  1   force =     0.00000000    0.00000000    0.00000000
     atom   28 type  1   force =     0.00000000    0.00000000    0.00000000
     atom   29 type  1   force =     0.00000000    0.00000000    0.00000000
     atom   30 type  1   force =     0.00000000    0.00000000    0.00000000
     atom   31 type  1   force =     0.00000000    0.00000000    0.00000000
     atom   32 type  1   force =     0.00000000    0.00000000    0.00000000
     atom   33 type  1   force =     0.00000000    0.00000000    0.00000000
     atom   34 type  1   force =     0.00000000    0.00000000    0.00000000
     atom   35 type  1   force =     0.00000000    0.00000000    0.00000000
     atom   36 type  1   force =     0.00000000    0.00000000    0.00000000
     atom   37 type  1   force =     0.00000000    0.00000000    0.00000000
     atom   38 type  1   force =     0.00000000    0.00000000    0.00000000
     atom   39 type  1   force =     0.00000000    0.00000000    0.00000000
     atom   40 type  1   force =     0.00000000    0.00000000    0.00000000
     atom   41 type  1   force =     0.00000000    0.00000000    0.00000000
     atom   42 type  1   force =     0.00000000    0.00000000    0.00000000
     atom   43 type  1   force =     0.00000000    0.00000000    0.00000000
     atom   44 type  1   force =     0.00000000    0.00000000    0.00000000
     atom   45 type  2   force =     0.01125752    0.01482939   -0.00981448
     atom   46 type  2   force =    -0.00504703   -0.01986878    0.01119260
     atom   47 type  2   force =     0.01716418    0.00931403    0.00043341
     atom   48 type  2   force =    -0.01175652   -0.01264884    0.00018652
     atom   49 type  2   force =     0.01944370   -0.00665190   -0.00820798
     atom   50 type  2   force =    -0.01911599    0.00210297    0.00879884
     atom   51 type  2   force =     0.00171223   -0.00897644   -0.01236321
     atom   52 type  2   force =     0.01320167    0.00758378   -0.00761674
     atom   53 type  2   force =    -0.00477085    0.00257008    0.01891821
     atom   54 type  2   force =     0.00064168   -0.00263829    0.01860935
     atom   55 type  2   force =    -0.00329830    0.01920087    0.00662701
     atom   56 type  2   force =    -0.00082056   -0.01365864   -0.01165775
     atom   57 type  2   force =     0.00225387    0.00084338   -0.02007490
     atom   58 type  2   force =     0.00253208    0.01753938    0.00957240
     atom   59 type  2   force =    -0.01794830    0.00995190    0.00492250
     atom   60 type  2   force =    -0.01707309    0.00259998   -0.00943822
     atom   61 type  2   force =    -0.01412894   -0.01555766    0.00373691
     atom   62 type  2   force =    -0.01574418    0.01490672    0.00305619
     atom   63 type  2   force =     0.00732204    0.01555154   -0.00607389
     atom   64 type  2   force =     0.01551007    0.00567990    0.00679768
     atom   65 type  2   force =     0.01172650   -0.01788451    0.00267263
     atom   66 type  2   force =    -0.00103804   -0.00501981    0.01727758
     The Hubbard contrib.    to forces
     atom    1 type  1   force =     0.00000000    0.00000000    0.00000000
     atom    2 type  1   force =     0.00000000    0.00000000    0.00000000
     atom    3 type  1   force =     0.00000000    0.00000000    0.00000000
     atom    4 type  1   force =     0.00000000    0.00000000    0.00000000
     atom    5 type  1   force =     0.00000000    0.00000000    0.00000000
     atom    6 type  1   force =     0.00000000    0.00000000    0.00000000
     atom    7 type  1   force =     0.00000000    0.00000000    0.00000000
     atom    8 type  1   force =     0.00000000    0.00000000    0.00000000
     atom    9 type  1   force =     0.00000000    0.00000000    0.00000000
     atom   10 type  1   force =     0.00000000    0.00000000    0.00000000
     atom   11 type  1   force =     0.00000000    0.00000000    0.00000000
     atom   12 type  1   force =     0.00000000    0.00000000    0.00000000
     atom   13 type  1   force =     0.00000000    0.00000000    0.00000000
     atom   14 type  1   force =     0.00000000    0.00000000    0.00000000
     atom   15 type  1   force =     0.00000000    0.00000000    0.00000000
     atom   16 type  1   force =     0.00000000    0.00000000    0.00000000
     atom   17 type  1   force =     0.00000000    0.00000000    0.00000000
     atom   18 type  1   force =     0.00000000    0.00000000    0.00000000
     atom   19 type  1   force =     0.00000000    0.00000000    0.00000000
     atom   20 type  1   force =     0.00000000    0.00000000    0.00000000
     atom   21 type  1   force =     0.00000000    0.00000000    0.00000000
     atom   22 type  1   force =     0.00000000    0.00000000    0.00000000
     atom   23 type  1   force =     0.00000000    0.00000000    0.00000000
     atom   24 type  1   force =     0.00000000    0.00000000    0.00000000
     atom   25 type  1   force =     0.00000000    0.00000000    0.00000000
     atom   26 type  1   force =     0.00000000    0.00000000    0.00000000
     atom   27 type  1   force =     0.00000000    0.00000000    0.00000000
     atom   28 type  1   force =     0.00000000    0.00000000    0.00000000
     atom   29 type  1   force =     0.00000000    0.00000000    0.00000000
     atom   30 type  1   force =     0.00000000    0.00000000    0.00000000
     atom   31 type  1   force =     0.00000000    0.00000000    0.00000000
     atom   32 type  1   force =     0.00000000    0.00000000    0.00000000
     atom   33 type  1   force =     0.00000000    0.00000000    0.00000000
     atom   34 type  1   force =     0.00000000    0.00000000    0.00000000
     atom   35 type  1   force =     0.00000000    0.00000000    0.00000000
     atom   36 type  1   force =     0.00000000    0.00000000    0.00000000
     atom   37 type  1   force =     0.00000000    0.00000000    0.00000000
     atom   38 type  1   force =     0.00000000    0.00000000    0.00000000
     atom   39 type  1   force =     0.00000000    0.00000000    0.00000000
     atom   40 type  1   force =     0.00000000    0.00000000    0.00000000
     atom   41 type  1   force =     0.00000000    0.00000000    0.00000000
     atom   42 type  1   force =     0.00000000    0.00000000    0.00000000
     atom   43 type  1   force =     0.00000000    0.00000000    0.00000000
     atom   44 type  1   force =     0.00000000    0.00000000    0.00000000
     atom   45 type  2   force =     0.00000000    0.00000000    0.00000000
     atom   46 type  2   force =     0.00000000    0.00000000    0.00000000
     atom   47 type  2   force =     0.00000000    0.00000000    0.00000000
     atom   48 type  2   force =     0.00000000    0.00000000    0.00000000
     atom   49 type  2   force =     0.00000000    0.00000000    0.00000000
     atom   50 type  2   force =     0.00000000    0.00000000    0.00000000
     atom   51 type  2   force =     0.00000000    0.00000000    0.00000000
     atom   52 type  2   force =     0.00000000    0.00000000    0.00000000
     atom   53 type  2   force =     0.00000000    0.00000000    0.00000000
     atom   54 type  2   force =     0.00000000    0.00000000    0.00000000
     atom   55 type  2   force =     0.00000000    0.00000000    0.00000000
     atom   56 type  2   force =     0.00000000    0.00000000    0.00000000
     atom   57 type  2   force =     0.00000000    0.00000000    0.00000000
     atom   58 type  2   force =     0.00000000    0.00000000    0.00000000
     atom   59 type  2   force =     0.00000000    0.00000000    0.00000000
     atom   60 type  2   force =     0.00000000    0.00000000    0.00000000
     atom   61 type  2   force =     0.00000000    0.00000000    0.00000000
     atom   62 type  2   force =     0.00000000    0.00000000    0.00000000
     atom   63 type  2   force =     0.00000000    0.00000000    0.00000000
     atom   64 type  2   force =     0.00000000    0.00000000    0.00000000
     atom   65 type  2   force =     0.00000000    0.00000000    0.00000000
     atom   66 type  2   force =     0.00000000    0.00000000    0.00000000
     The SCF correction term to forces
     atom    1 type  1   force =    -0.00001571   -0.00000737   -0.00000047
     atom    2 type  1   force =     0.00000666   -0.00000829    0.00000957
     atom    3 type  1   force =    -0.00000368    0.00001104    0.00000099
     atom    4 type  1   force =     0.00000732    0.00000258   -0.00000841
     atom    5 type  1   force =    -0.00000372   -0.00000064   -0.00000393
     atom    6 type  1   force =    -0.00000353   -0.00000481    0.00000112
     atom    7 type  1   force =     0.00000525    0.00000503    0.00000081
     atom    8 type  1   force =     0.00000454    0.00000468   -0.00000597
     atom    9 type  1   force =    -0.00000161    0.00000086    0.00000204
     atom   10 type  1   force =    -0.00000209    0.00000321    0.00000413
     atom   11 type  1   force =     0.00000024   -0.00000187   -0.00000519
     atom   12 type  1   force =     0.00000538    0.00000140   -0.00000296
     atom   13 type  1   force =     0.00000530    0.00000678   -0.00000605
     atom   14 type  1   force =    -0.00000718    0.00000056    0.00000129
     atom   15 type  1   force =     0.00000389   -0.00000093    0.00000395
     atom   16 type  1   force =    -0.00000018   -0.00000104    0.00000000
     atom   17 type  1   force =    -0.00000214   -0.00000083   -0.00000144
     atom   18 type  1   force =     0.00000317   -0.00000030   -0.00000636
     atom   19 type  1   force =     0.00000237   -0.00000001    0.00000012
     atom   20 type  1   force =     0.00000193    0.00000194   -0.00000520
     atom   21 type  1   force =     0.00001410   -0.00000301   -0.00000718
     atom   22 type  1   force =    -0.00001330   -0.00001823    0.00000094
     atom   23 type  1   force =     0.00000864    0.00000183    0.00000401
     atom   24 type  1   force =    -0.00000851    0.00001573    0.00000475
     atom   25 type  1   force =     0.00000468    0.00000586    0.00000718
     atom   26 type  1   force =     0.00000027   -0.00000524    0.00000549
     atom   27 type  1   force =    -0.00001262   -0.00000972    0.00000299
     atom   28 type  1   force =     0.00000624   -0.00001426   -0.00001199
     atom   29 type  1   force =     0.00001005   -0.00000436   -0.00000040
     atom   30 type  1   force =     0.00000510    0.00000053   -0.00000745
     atom   31 type  1   force =    -0.00000021   -0.00000163   -0.00000423
     atom   32 type  1   force =     0.00000184    0.00000116   -0.00000246
     atom   33 type  1   force =     0.00000104    0.00001153    0.00000088
     atom   34 type  1   force =     0.00000968    0.00000598   -0.00000328
     atom   35 type  1   force =     0.00000153   -0.00000840    0.00000121
     atom   36 type  1   force =     0.00000999   -0.00000337   -0.00000325
     atom   37 type  1   force =     0.00000415   -0.00001006    0.00000135
     atom   38 type  1   force =    -0.00000597   -0.00000371   -0.00000289
     atom   39 type  1   force =    -0.00000865   -0.00000555    0.00000609
     atom   40 type  1   force =    -0.00000216   -0.00000109   -0.00000500
     atom   41 type  1   force =    -0.00001080    0.00000892   -0.00001305
     atom   42 type  1   force =     0.00000072    0.00000939    0.00001257
     atom   43 type  1   force =    -0.00000853   -0.00000143   -0.00000666
     atom   44 type  1   force =     0.00000297   -0.00000174   -0.00000397
     atom   45 type  2   force =    -0.00000474   -0.00002855    0.00002044
     atom   46 type  2   force =    -0.00000238    0.00003591   -0.00000342
     atom   47 type  2   force =    -0.00002626    0.00000547   -0.00001464
     atom   48 type  2   force =     0.00001135   -0.00000042   -0.00002175
     atom   49 type  2   force =    -0.00000958    0.00004554    0.00003159
     atom   50 type  2   force =     0.00004117    0.00004312    0.00000361
     atom   51 type  2   force =    -0.00000975   -0.00002331   -0.00007651
     atom   52 type  2   force =     0.00003326   -0.00001308    0.00003057
     atom   53 type  2   force =    -0.00003029   -0.00000708   -0.00004230
     atom   54 type  2   force =     0.00001528    0.00002441   -0.00004965
     atom   55 type  2   force =    -0.00001056   -0.00001119    0.00000521
     atom   56 type  2   force =     0.00002804    0.00002273   -0.00001112
     atom   57 type  2   force =     0.00002986   -0.00001382    0.00002157
     atom   58 type  2   force =    -0.00002450   -0.00002615    0.00000936
     atom   59 type  2   force =     0.00005085    0.00002453   -0.00005442
     atom   60 type  2   force =     0.00001163    0.00002935   -0.00003423
     atom   61 type  2   force =     0.00004623    0.00006764   -0.00000537
     atom   62 type  2   force =     0.00000581   -0.00003999    0.00000028
     atom   63 type  2   force =    -0.00003107   -0.00001013   -0.00002503
     atom   64 type  2   force =     0.00000192   -0.00000362    0.00002010
     atom   65 type  2   force =     0.00000658    0.00001754    0.00004092
     atom   66 type  2   force =    -0.00005872   -0.00004697    0.00001839

     Total force =     0.528797     Total SCF correction =     0.000249


     Computing stress (Cartesian axis) and pressure


     negative rho (up, down):  5.074E-01 0.000E+00
          total   stress  (Ry/bohr**3)                   (kbar)     P=       -2.91
  -0.00002060  -0.00000062   0.00000026           -3.03       -0.09        0.04
  -0.00000062  -0.00001948   0.00000043           -0.09       -2.87        0.06
   0.00000026   0.00000043  -0.00001916            0.04        0.06       -2.82


     init_run     :      7.52s CPU      7.91s WALL (       1 calls)
     electrons    :     81.53s CPU     87.56s WALL (       1 calls)
     forces       :      5.54s CPU      5.83s WALL (       1 calls)
     stress       :     16.98s CPU     17.31s WALL (       1 calls)

     Called by init_run:
     wfcinit      :      2.74s CPU      2.90s WALL (       1 calls)
     potinit      :      1.31s CPU      1.36s WALL (       1 calls)
     hinit0       :      1.01s CPU      1.06s WALL (       1 calls)

     Called by electrons:
     c_bands      :     54.66s CPU     58.00s WALL (      11 calls)
     sum_band     :     15.02s CPU     16.28s WALL (      11 calls)
     v_of_rho     :      7.10s CPU      7.66s WALL (      12 calls)
     newd         :      3.16s CPU      4.06s WALL (      12 calls)
     PAW_pot      :      1.14s CPU      1.14s WALL (      12 calls)
     mix_rho      :      1.19s CPU      1.27s WALL (      11 calls)

     Called by c_bands:
     init_us_2    :      0.73s CPU      0.75s WALL (      23 calls)
     init_us_2:cp :      0.73s CPU      0.75s WALL (      23 calls)
     regterg      :     53.65s CPU     56.99s WALL (      11 calls)

     Called by *egterg:
     rdiaghg      :      0.27s CPU      0.28s WALL (      36 calls)
     h_psi        :     47.75s CPU     50.61s WALL (      37 calls)
     s_psi        :      1.54s CPU      1.55s WALL (      37 calls)
     g_psi        :      0.15s CPU      0.15s WALL (      25 calls)

     Called by h_psi:
     h_psi:calbec :      1.55s CPU      1.57s WALL (      37 calls)
     vloc_psi     :     44.27s CPU     47.09s WALL (      37 calls)
     add_vuspsi   :      1.54s CPU      1.55s WALL (      37 calls)

     General routines
     calbec       :      2.28s CPU      2.31s WALL (      53 calls)
     fft          :      3.94s CPU      4.48s WALL (     128 calls)
     ffts         :      0.26s CPU      0.30s WALL (      11 calls)
     fftw         :     39.35s CPU     42.45s WALL (    3176 calls)

     Parallel routines

     PWSCF        :   1m51.69s CPU   1m58.78s WALL


   This run was terminated on:  22:40:32  27Mar2024            

=------------------------------------------------------------------------------=
   JOB DONE.
=------------------------------------------------------------------------------=
